
                                 *****************
                                 * O   R   C   A *
                                 *****************

                                            #,                                       
                                            ###                                      
                                            ####                                     
                                            #####                                    
                                            ######                                   
                                           ########,                                 
                                     ,,################,,,,,                         
                               ,,#################################,,                 
                          ,,##########################################,,             
                       ,#########################################, ''#####,          
                    ,#############################################,,   '####,        
                  ,##################################################,,,,####,       
                ,###########''''           ''''###############################       
              ,#####''   ,,,,##########,,,,          '''####'''          '####       
            ,##' ,,,,###########################,,,                        '##       
           ' ,,###''''                  '''############,,,                           
         ,,##''                                '''############,,,,        ,,,,,,###''
      ,#''                                            '''#######################'''  
     '                                                          ''''####''''         
             ,#######,   #######,   ,#######,      ##                                
            ,#'     '#,  ##    ##  ,#'     '#,    #''#        ######   ,####,        
            ##       ##  ##   ,#'  ##            #'  '#       #        #'  '#        
            ##       ##  #######   ##           ,######,      #####,   #    #        
            '#,     ,#'  ##    ##  '#,     ,#' ,#      #,         ##   #,  ,#        
             '#######'   ##     ##  '#######'  #'      '#     #####' # '####'        



                  #######################################################
                  #                        -***-                        #
                  #          Department of theory and spectroscopy      #
                  #    Directorship and core code : Frank Neese         #
                  #        Max Planck Institute fuer Kohlenforschung    #
                  #                Kaiser Wilhelm Platz 1               #
                  #                 D-45470 Muelheim/Ruhr               #
                  #                      Germany                        #
                  #                                                     #
                  #                  All rights reserved                #
                  #                        -***-                        #
                  #######################################################


                         Program Version 5.0.4 -  RELEASE  -


 With contributions from (in alphabetic order):
   Daniel Aravena         : Magnetic Suceptibility
   Michael Atanasov       : Ab Initio Ligand Field Theory (pilot matlab implementation)
   Alexander A. Auer      : GIAO ZORA, VPT2 properties, NMR spectrum
   Ute Becker             : Parallelization
   Giovanni Bistoni       : ED, misc. LED, open-shell LED, HFLD
   Martin Brehm           : Molecular dynamics
   Dmytro Bykov           : SCF Hessian
   Vijay G. Chilkuri      : MRCI spin determinant printing, contributions to CSF-ICE
   Dipayan Datta          : RHF DLPNO-CCSD density
   Achintya Kumar Dutta   : EOM-CC, STEOM-CC
   Dmitry Ganyushin       : Spin-Orbit,Spin-Spin,Magnetic field MRCI
   Miquel Garcia          : C-PCM and meta-GGA Hessian, CC/C-PCM, Gaussian charge scheme
   Yang Guo               : DLPNO-NEVPT2, F12-NEVPT2, CIM, IAO-localization
   Andreas Hansen         : Spin unrestricted coupled pair/coupled cluster methods
   Benjamin Helmich-Paris : MC-RPA, TRAH-SCF, COSX integrals
   Lee Huntington         : MR-EOM, pCC
   Robert Izsak           : Overlap fitted RIJCOSX, COSX-SCS-MP3, EOM
   Marcus Kettner         : VPT2
   Christian Kollmar      : KDIIS, OOCD, Brueckner-CCSD(T), CCSD density, CASPT2, CASPT2-K
   Simone Kossmann        : Meta GGA functionals, TD-DFT gradient, OOMP2, MP2 Hessian
   Martin Krupicka        : Initial AUTO-CI
   Lucas Lang             : DCDCAS
   Marvin Lechner         : AUTO-CI (C++ implementation), FIC-MRCC
   Dagmar Lenk            : GEPOL surface, SMD
   Dimitrios Liakos       : Extrapolation schemes; Compound Job, initial MDCI parallelization
   Dimitrios Manganas     : Further ROCIS development; embedding schemes
   Dimitrios Pantazis     : SARC Basis sets
   Anastasios Papadopoulos: AUTO-CI, single reference methods and gradients
   Taras Petrenko         : DFT Hessian,TD-DFT gradient, ASA, ECA, R-Raman, ABS, FL, XAS/XES, NRVS
   Peter Pinski           : DLPNO-MP2, DLPNO-MP2 Gradient
   Christoph Reimann      : Effective Core Potentials
   Marius Retegan         : Local ZFS, SOC
   Christoph Riplinger    : Optimizer, TS searches, QM/MM, DLPNO-CCSD(T), (RO)-DLPNO pert. Triples
   Tobias Risthaus        : Range-separated hybrids, TD-DFT gradient, RPA, STAB
   Michael Roemelt        : Original ROCIS implementation
   Masaaki Saitow         : Open-shell DLPNO-CCSD energy and density
   Barbara Sandhoefer     : DKH picture change effects
   Avijit Sen             : IP-ROCIS
   Kantharuban Sivalingam : CASSCF convergence, NEVPT2, FIC-MRCI
   Bernardo de Souza      : ESD, SOC TD-DFT
   Georgi Stoychev        : AutoAux, RI-MP2 NMR, DLPNO-MP2 response
   Willem Van den Heuvel  : Paramagnetic NMR
   Boris Wezisla          : Elementary symmetry handling
   Frank Wennmohs         : Technical directorship


 We gratefully acknowledge several colleagues who have allowed us to
 interface, adapt or use parts of their codes:
   Stefan Grimme, W. Hujo, H. Kruse, P. Pracht,  : VdW corrections, initial TS optimization,
                  C. Bannwarth, S. Ehlert          DFT functionals, gCP, sTDA/sTD-DF
   Ed Valeev, F. Pavosevic, A. Kumar             : LibInt (2-el integral package), F12 methods
   Garnet Chan, S. Sharma, J. Yang, R. Olivares  : DMRG
   Ulf Ekstrom                                   : XCFun DFT Library
   Mihaly Kallay                                 : mrcc  (arbitrary order and MRCC methods)
   Jiri Pittner, Ondrej Demel                    : Mk-CCSD
   Frank Weinhold                                : gennbo (NPA and NBO analysis)
   Christopher J. Cramer and Donald G. Truhlar   : smd solvation model
   Lars Goerigk                                  : TD-DFT with DH, B97 family of functionals
   V. Asgeirsson, H. Jonsson                     : NEB implementation
   FAccTs GmbH                                   : IRC, NEB, NEB-TS, DLPNO-Multilevel, CI-OPT
                                                   MM, QMMM, 2- and 3-layer-ONIOM, Crystal-QMMM,
                                                   LR-CPCM, SF, NACMEs, symmetry and pop. for TD-DFT,
                                                   nearIR, NL-DFT gradient (VV10), updates on ESD,
                                                   ML-optimized integration grids
   S Lehtola, MJT Oliveira, MAL Marques          : LibXC Library
   Liviu Ungur et al                             : ANISO software


 Your calculation uses the libint2 library for the computation of 2-el integrals
 For citations please refer to: http://libint.valeyev.net

 Your ORCA version has been built with support for libXC version: 5.1.0
 For citations please refer to: https://tddft.org/programs/libxc/

 This ORCA versions uses:
   CBLAS   interface :  Fast vector & matrix operations
   LAPACKE interface :  Fast linear algebra routines
   SCALAPACK package :  Parallel linear algebra routines
   Shared memory     :  Shared parallel matrices
   BLAS/LAPACK       :  OpenBLAS 0.3.15  USE64BITINT DYNAMIC_ARCH NO_AFFINITY SkylakeX SINGLE_THREADED
        Core in use  :  SkylakeX
   Copyright (c) 2011-2014, The OpenBLAS Project


================================================================================

----- Orbital basis set information -----
Your calculation utilizes the basis: 6-31G(d)
   H-He, Li-Ne : W. J. Hehre, R. Ditchfield and J.A. Pople, J. Chem. Phys. 56, 2257 (1972).
                 Note: He and Ne are unpublished basis sets taken from the Gaussian program.
                 Note: Li and B from J. D. Dill and J. A. Pople, J. Chem. Phys. 62, 2921 (1975).
   Na - Ar     : M. M. Francl, W. J. Pietro, W. J. Hehre, J. S. Binkley, M. S. Gordon, 
                 D. J. DeFrees and J. A. Pople, J. Chem. Phys. 77, 3654 (1982).
   K - Zn      : V. A. Rassolov, J. A. Pople, M. A. Ratner, and T. L. Windus, J. Chem. Phys. 109, 1223 (1998).

================================================================================
                                        WARNINGS
                       Please study these warnings very carefully!
================================================================================

WARNING: Old DensityContainer found on disk!
         Will remove this file - 
         If you want to keep old densities, please start your calculation with a different basename. 


WARNING: The frozen-core approximation for MP2-gradient calculations is turned on by default.

WARNING: Geometry Optimization
  ===> : Switching off AutoStart
         For restart on a previous wavefunction, please use MOREAD

WARNING: Post HF methods need fully converged wavefunctions
  ===> : Setting SCFConvForced true
         You can overwrite this default with %scf ConvForced false 


INFO   : the flag for use of the SHARK integral package has been found!

================================================================================
                                       INPUT FILE
================================================================================
NAME = geom_opt.in
|  1> ! MP2 6-31g(d) Opt PAL4
|  2> 
|  3> *xyz 0 1
|  4> C  -1.647   0.862   0.080
|  5> C  -0.249   0.942   0.085
|  6> C  -2.291  -0.379   0.014
|  7> C   0.534  -0.240   0.020
|  8> C  -1.535  -1.552  -0.045
|  9> C  -0.138  -1.485  -0.042
| 10> H  -2.029  -2.513  -0.094
| 11> H   0.429  -2.403  -0.097
| 12> C   2.039  -0.163  -0.024
| 13> H  -2.244   1.761   0.139
| 14> N   0.326   2.206   0.176
| 15> O   2.688   0.856  -0.222
| 16> O   2.744  -1.349   0.167
| 17> H   3.684  -1.174   0.121
| 18> H  -3.370  -0.431   0.015
| 19> H   1.306   2.156  -0.04
| 20> H  -0.247   2.906  -0.243
| 21> *
| 22> 
| 23>                          ****END OF INPUT****
================================================================================

                       *****************************
                       * Geometry Optimization Run *
                       *****************************

Geometry optimization settings:
Update method            Update   .... BFGS
Choice of coordinates    CoordSys .... Z-matrix Internals
Initial Hessian          InHess   .... Almoef's Model

Convergence Tolerances:
Energy Change            TolE     ....  5.0000e-06 Eh
Max. Gradient            TolMAXG  ....  3.0000e-04 Eh/bohr
RMS Gradient             TolRMSG  ....  1.0000e-04 Eh/bohr
Max. Displacement        TolMAXD  ....  4.0000e-03 bohr
RMS Displacement         TolRMSD  ....  2.0000e-03 bohr
Strict Convergence                ....  False
------------------------------------------------------------------------------
                        ORCA OPTIMIZATION COORDINATE SETUP
------------------------------------------------------------------------------

The optimization will be done in new redundant internal coordinates
Making redundant internal coordinates   ...  (new redundants) done
Evaluating the initial hessian          ...  (Almloef) done
Evaluating the coordinates              ...  done
Calculating the B-matrix                .... done
Calculating the G-matrix                .... done
Diagonalizing the G-matrix              .... done
Small eigenvalue found = 2.707e-02
The first mode is                       ....   31
The number of degrees of freedom        ....   45

    -----------------------------------------------------------------
                    Redundant Internal Coordinates


    -----------------------------------------------------------------
         Definition                    Initial Value    Approx d2E/dq
    -----------------------------------------------------------------
      1. B(C   1,C   0)                  1.4003         0.601606   
      2. B(C   2,C   0)                  1.3997         0.602914   
      3. B(C   3,C   1)                  1.4193         0.561019   
      4. B(C   4,C   2)                  1.3968         0.609465   
      5. B(C   5,C   4)                  1.3986         0.605346   
      6. B(C   5,C   3)                  1.4161         0.567588   
      7. B(H   6,C   4)                  1.0816         0.371323   
      8. B(H   7,C   5)                  1.0804         0.373043   
      9. B(C   8,C   3)                  1.5076         0.405600   
     10. B(H   9,C   0)                  1.0808         0.372502   
     11. B(N  10,C   1)                  1.3916         0.556280   
     12. B(O  11,C   8)                  1.2242         1.028806   
     13. B(O  12,C   8)                  1.3929         0.553717   
     14. B(H  13,O  12)                  0.9573         0.525222   
     15. B(H  14,C   2)                  1.0803         0.373228   
     16. B(H  15,N  10)                  1.0048         0.441107   
     17. B(H  16,N  10)                  0.9969         0.453974   
     18. A(C   1,C   0,C   2)          120.6748         0.429561   
     19. A(C   2,C   0,H   9)          119.0726         0.353263   
     20. A(C   1,C   0,H   9)          120.2488         0.353133   
     21. A(C   3,C   1,N  10)          122.1052         0.415458   
     22. A(C   0,C   1,C   3)          120.2007         0.424055   
     23. A(C   0,C   1,N  10)          117.6866         0.420660   
     24. A(C   0,C   2,C   4)          119.8375         0.430563   
     25. A(C   0,C   2,H  14)          120.1456         0.353379   
     26. A(C   4,C   2,H  14)          120.0157         0.354027   
     27. A(C   5,C   3,C   8)          121.1534         0.396261   
     28. A(C   1,C   3,C   8)          120.6321         0.395453   
     29. A(C   1,C   3,C   5)          118.1885         0.419670   
     30. A(C   2,C   4,H   6)          120.0560         0.353720   
     31. A(C   2,C   4,C   5)          120.0204         0.430874   
     32. A(C   5,C   4,H   6)          119.9236         0.353314   
     33. A(C   3,C   5,C   4)          121.0772         0.425410   
     34. A(C   4,C   5,H   7)          118.9073         0.353590   
     35. A(C   3,C   5,H   7)          120.0132         0.349761   
     36. A(O  11,C   8,O  12)          117.5540         0.460016   
     37. A(C   3,C   8,O  12)          117.2440         0.392031   
     38. A(C   3,C   8,O  11)          125.2004         0.437644   
     39. A(H  15,N  10,H  16)          120.3434         0.306541   
     40. A(C   1,N  10,H  16)          111.8879         0.355003   
     41. A(C   1,N  10,H  15)          110.1053         0.353277   
     42. A(C   8,O  12,H  13)          109.5586         0.363639   
     43. D(N  10,C   1,C   0,H   9)      0.3846         0.024958   
     44. D(N  10,C   1,C   0,C   2)   -178.8939         0.024958   
     45. D(C   3,C   1,C   0,H   9)    179.4140         0.024958   
     46. D(C   3,C   1,C   0,C   2)      0.1355         0.024958   
     47. D(C   4,C   2,C   0,C   1)      0.1244         0.025072   
     48. D(H  14,C   2,C   0,H   9)      0.4471         0.025072   
     49. D(C   4,C   2,C   0,H   9)   -179.1625         0.025072   
     50. D(H  14,C   2,C   0,C   1)    179.7340         0.025072   
     51. D(C   8,C   3,C   1,N  10)     -3.1707         0.021563   
     52. D(C   8,C   3,C   1,C   0)    177.8439         0.021563   
     53. D(C   5,C   3,C   1,N  10)    178.6607         0.021563   
     54. D(C   5,C   3,C   1,C   0)     -0.3247         0.021563   
     55. D(H   6,C   4,C   2,C   0)    179.8718         0.025651   
     56. D(C   5,C   4,C   2,H  14)   -179.7963         0.025651   
     57. D(C   5,C   4,C   2,C   0)     -0.1862         0.025651   
     58. D(H   6,C   4,C   2,H  14)      0.2617         0.025651   
     59. D(H   7,C   5,C   4,H   6)      0.4765         0.025286   
     60. D(C   3,C   5,C   4,H   6)    179.9306         0.025286   
     61. D(C   3,C   5,C   4,C   2)     -0.0115         0.025286   
     62. D(H   7,C   5,C   3,C   8)      1.5542         0.022091   
     63. D(H   7,C   5,C   3,C   1)    179.7128         0.022091   
     64. D(H   7,C   5,C   4,C   2)   -179.4656         0.025286   
     65. D(C   4,C   5,C   3,C   8)   -177.8939         0.022091   
     66. D(C   4,C   5,C   3,C   1)      0.2647         0.022091   
     67. D(O  12,C   8,C   3,C   5)    -13.6961         0.011295   
     68. D(O  12,C   8,C   3,C   1)    168.1901         0.011295   
     69. D(O  11,C   8,C   3,C   5)    165.8341         0.011295   
     70. D(O  11,C   8,C   3,C   1)    -12.2797         0.011295   
     71. D(H  16,N  10,C   1,C   0)    -30.4396         0.024695   
     72. D(H  15,N  10,C   1,C   3)     13.9305         0.024695   
     73. D(H  15,N  10,C   1,C   0)   -167.0598         0.024695   
     74. D(H  16,N  10,C   1,C   3)    150.5507         0.024695   
     75. D(H  13,O  12,C   8,O  11)      0.6494         0.022189   
     76. D(H  13,O  12,C   8,C   3)   -179.7837         0.022189   
    -----------------------------------------------------------------

Number of atoms                         .... 17
Number of degrees of freedom            .... 76

         *************************************************************
         *                GEOMETRY OPTIMIZATION CYCLE   1            *
         *************************************************************
---------------------------------
CARTESIAN COORDINATES (ANGSTROEM)
---------------------------------
  C     -1.647000    0.862000    0.080000
  C     -0.249000    0.942000    0.085000
  C     -2.291000   -0.379000    0.014000
  C      0.534000   -0.240000    0.020000
  C     -1.535000   -1.552000   -0.045000
  C     -0.138000   -1.485000   -0.042000
  H     -2.029000   -2.513000   -0.094000
  H      0.429000   -2.403000   -0.097000
  C      2.039000   -0.163000   -0.024000
  H     -2.244000    1.761000    0.139000
  N      0.326000    2.206000    0.176000
  O      2.688000    0.856000   -0.222000
  O      2.744000   -1.349000    0.167000
  H      3.684000   -1.174000    0.121000
  H     -3.370000   -0.431000    0.015000
  H      1.306000    2.156000   -0.040000
  H     -0.247000    2.906000   -0.243000

----------------------------
CARTESIAN COORDINATES (A.U.)
----------------------------
  NO LB      ZA    FRAG     MASS         X           Y           Z
   0 C     6.0000    0    12.011   -3.112379    1.628944    0.151178
   1 C     6.0000    0    12.011   -0.470542    1.780122    0.160627
   2 C     6.0000    0    12.011   -4.329363   -0.716206    0.026456
   3 C     6.0000    0    12.011    1.009114   -0.453534    0.037795
   4 C     6.0000    0    12.011   -2.900730   -2.932855   -0.085038
   5 C     6.0000    0    12.011   -0.260782   -2.806243   -0.079368
   6 H     1.0000    0     1.008   -3.834254   -4.748882   -0.177634
   7 H     1.0000    0     1.008    0.810693   -4.541012   -0.183303
   8 C     6.0000    0    12.011    3.853152   -0.308025   -0.045353
   9 H     1.0000    0     1.008   -4.240545    3.327808    0.262672
  10 N     7.0000    0    14.007    0.616051    4.168736    0.332592
  11 O     8.0000    0    15.999    5.079584    1.617606   -0.419519
  12 O     8.0000    0    15.999    5.185409   -2.549241    0.315584
  13 H     1.0000    0     1.008    6.961751   -2.218538    0.228657
  14 H     1.0000    0     1.008   -6.368377   -0.814472    0.028346
  15 H     1.0000    0     1.008    2.467982    4.074250   -0.075589
  16 H     1.0000    0     1.008   -0.466762    5.491544   -0.459203

--------------------------------
INTERNAL COORDINATES (ANGSTROEM)
--------------------------------
 C      0   0   0     0.000000000000     0.00000000     0.00000000
 C      1   0   0     1.400296040129     0.00000000     0.00000000
 C      1   2   0     1.399704611695   120.67475904     0.00000000
 C      2   1   3     1.419308986796   120.20068786     0.13550297
 C      3   1   2     1.396762685641   119.83754457     0.12437020
 C      5   3   1     1.398608951780   120.02037638   359.81380419
 H      5   3   1     1.081645967958   120.05600850   179.87182781
 H      6   5   3     1.080387893305   118.90731570   180.53441166
 C      4   2   1     1.507610692453   120.63210306   177.84393172
 H      1   2   3     1.080782586832   120.24875605   179.27849795
 N      2   1   3     1.391618482200   117.68663787   181.10610886
 O      9   4   2     1.224240989348   125.20042135   347.72027278
 O      9   4   2     1.392875443103   117.24396005   168.19013781
 H     13   9   4     0.957257018778   109.55863615   180.21630433
 H      3   1   2     1.080252748203   120.14557667   179.73395945
 H     11   2   1     1.004766639574   110.10528877   192.94019202
 H     11   2   1     0.996940319177   111.88786946   329.56039393

---------------------------
INTERNAL COORDINATES (A.U.)
---------------------------
 C      0   0   0     0.000000000000     0.00000000     0.00000000
 C      1   0   0     2.646176022258     0.00000000     0.00000000
 C      1   2   0     2.645058384490   120.67475904     0.00000000
 C      2   1   3     2.682105284458   120.20068786     0.13550297
 C      3   1   2     2.639498949942   119.83754457     0.12437020
 C      5   3   1     2.642987887315   120.02037638   359.81380419
 H      5   3   1     2.044014653301   120.05600850   179.87182781
 H      6   5   3     2.041637236751   118.90731570   180.53441166
 C      4   2   1     2.848971325308   120.63210306   177.84393172
 H      1   2   3     2.042383099424   120.24875605   179.27849795
 N      2   1   3     2.629777814261   117.68663787   181.10610886
 O      9   4   2     2.313480191789   125.20042135   347.72027278
 O      9   4   2     2.632153126129   117.24396005   168.19013781
 H     13   9   4     1.808953605265   109.55863615   180.21630433
 H      3   1   2     2.041381849519   120.14557667   179.73395945
 H     11   2   1     1.898733777294   110.10528877   192.94019202
 H     11   2   1     1.883944175108   111.88786946   329.56039393

---------------------
BASIS SET INFORMATION
---------------------
There are 4 groups of distinct atoms

 Group   1 Type C   : 10s4p1d contracted to 3s2p1d pattern {631/31/1}
 Group   2 Type H   : 4s contracted to 2s pattern {31}
 Group   3 Type N   : 10s4p1d contracted to 3s2p1d pattern {631/31/1}
 Group   4 Type O   : 10s4p1d contracted to 3s2p1d pattern {631/31/1}

Atom   0C    basis set group =>   1
Atom   1C    basis set group =>   1
Atom   2C    basis set group =>   1
Atom   3C    basis set group =>   1
Atom   4C    basis set group =>   1
Atom   5C    basis set group =>   1
Atom   6H    basis set group =>   2
Atom   7H    basis set group =>   2
Atom   8C    basis set group =>   1
Atom   9H    basis set group =>   2
Atom  10N    basis set group =>   3
Atom  11O    basis set group =>   4
Atom  12O    basis set group =>   4
Atom  13H    basis set group =>   2
Atom  14H    basis set group =>   2
Atom  15H    basis set group =>   2
Atom  16H    basis set group =>   2


           ************************************************************
           *        Program running with 4 parallel MPI-processes     *
           *              working on a common directory               *
           ************************************************************
------------------------------------------------------------------------------
                           ORCA GTO INTEGRAL CALCULATION
------------------------------------------------------------------------------
------------------------------------------------------------------------------
                   ___                                                        
                  /   \      - P O W E R E D   B Y -                         
                 /     \                                                     
                 |  |  |   _    _      __       _____    __    __             
                 |  |  |  | |  | |    /  \     |  _  \  |  |  /  |          
                  \  \/   | |  | |   /    \    | | | |  |  | /  /          
                 / \  \   | |__| |  /  /\  \   | |_| |  |  |/  /          
                |  |  |   |  __  | /  /__\  \  |    /   |      \           
                |  |  |   | |  | | |   __   |  |    \   |  |\   \          
                \     /   | |  | | |  |  |  |  | |\  \  |  | \   \       
                 \___/    |_|  |_| |__|  |__|  |_| \__\ |__|  \__/        
                                                                              
                      - O R C A' S   B I G   F R I E N D -                    
                                      &                                       
                       - I N T E G R A L  F E E D E R -                       
                                                                              
 v1 FN, 2020, v2 2021                                                         
------------------------------------------------------------------------------


Reading SHARK input file geom_opt.SHARKINP.tmp ... ok
----------------------
SHARK INTEGRAL PACKAGE
----------------------

Number of atoms                             ...     17
Number of basis functions                   ...    154
Number of shells                            ...     74
Maximum angular momentum                    ...      2
Integral batch strategy                     ... SHARK/LIBINT Hybrid
RI-J (if used) integral strategy            ... SPLIT-RIJ (Revised 2003 algorithm where possible)
Printlevel                                  ...      1
Contraction scheme used                     ... SEGMENTED contraction
Coulomb Range Separation                    ... NOT USED
Exchange Range Separation                   ... NOT USED
Finite Nucleus Model                        ... NOT USED
Auxiliary Coulomb fitting basis             ... NOT available
Auxiliary J/K fitting basis                 ... NOT available
Auxiliary Correlation fitting basis         ... NOT available
Auxiliary 'external' fitting basis          ... NOT available
Integral threshold                          ...     2.500000e-11
Primitive cut-off                           ...     2.500000e-12
Primitive pair pre-selection threshold      ...     2.500000e-12

Calculating pre-screening integrals         ... done (  0.0 sec) Dimension = 74
Organizing shell pair data                  ... done (  0.0 sec)
Shell pair information
Total number of shell pairs                 ...      2775
Shell pairs after pre-screening             ...      2552
Total number of primitive shell pairs       ...     16162
Primitive shell pairs kept                  ...      9552
          la=0 lb=0:    872 shell pairs
          la=1 lb=0:    835 shell pairs
          la=1 lb=1:    206 shell pairs
          la=2 lb=0:    392 shell pairs
          la=2 lb=1:    196 shell pairs
          la=2 lb=2:     51 shell pairs

Calculating one electron integrals          ... done (  0.0 sec)
Calculating Nuclear repulsion               ... done (  0.0 sec) ENN=    496.485962416237 Eh

SHARK setup successfully completed in   0.2 seconds

Maximum memory used throughout the entire GTOINT-calculation: 10.4 MB


           ************************************************************
           *        Program running with 4 parallel MPI-processes     *
           *              working on a common directory               *
           ************************************************************
-------------------------------------------------------------------------------
                                 ORCA SCF
-------------------------------------------------------------------------------

------------
SCF SETTINGS
------------
Hamiltonian:
 Ab initio Hamiltonian  Method          .... Hartree-Fock(GTOs)


General Settings:
 Integral files         IntName         .... geom_opt
 Hartree-Fock type      HFTyp           .... RHF
 Total Charge           Charge          ....    0
 Multiplicity           Mult            ....    1
 Number of Electrons    NEL             ....   72
 Basis Dimension        Dim             ....  154
 Nuclear Repulsion      ENuc            ....    496.4859624162 Eh

Convergence Acceleration:
 DIIS                   CNVDIIS         .... on
   Start iteration      DIISMaxIt       ....    12
   Startup error        DIISStart       ....  0.200000
   # of expansion vecs  DIISMaxEq       ....     5
   Bias factor          DIISBfac        ....   1.050
   Max. coefficient     DIISMaxC        ....  10.000
 Trust-Rad. Augm. Hess. CNVTRAH         .... auto
   Auto Start mean grad. ratio tolernc. ....  1.125000
   Auto Start start iteration           ....    20
   Auto Start num. interpolation iter.  ....    10
   Max. Number of Micro iterations      ....    16
   Max. Number of Macro iterations      .... Maxiter - #DIIS iter
   Number of Davidson start vectors     ....     2
   Converg. threshold I  (grad. norm)   ....   1.000e-05
   Converg. threshold II (energy diff.) ....   1.000e-08
   Grad. Scal. Fac. for Micro threshold ....   0.100
   Minimum threshold for Micro iter.    ....   0.010
   NR start threshold (gradient norm)   ....   0.001
   Initial trust radius                 ....   0.400
   Minimum AH scaling param. (alpha)    ....   1.000
   Maximum AH scaling param. (alpha)    .... 1000.000
   Orbital update algorithm             .... Taylor
   White noise on init. David. guess    .... on
   Maximum white noise                  ....   0.010
   Quad. conv. algorithm                .... NR
 SOSCF                  CNVSOSCF        .... on
   Start iteration      SOSCFMaxIt      ....   150
   Startup grad/error   SOSCFStart      ....  0.003300
 Level Shifting         CNVShift        .... on
   Level shift para.    LevelShift      ....    0.2500
   Turn off err/grad.   ShiftErr        ....    0.0010
 Zerner damping         CNVZerner       .... off
 Static damping         CNVDamp         .... on
   Fraction old density DampFac         ....    0.7000
   Max. Damping (<1)    DampMax         ....    0.9800
   Min. Damping (>=0)   DampMin         ....    0.0000
   Turn off err/grad.   DampErr         ....    0.1000
 Fernandez-Rico         CNVRico         .... off

SCF Procedure:
 Maximum # iterations   MaxIter         ....   125
 SCF integral mode      SCFMode         .... Direct
   Integral package                     .... SHARK and LIBINT hybrid scheme
 Reset frequency        DirectResetFreq ....    20
 Integral Threshold     Thresh          ....  2.500e-11 Eh
 Primitive CutOff       TCut            ....  2.500e-12 Eh

Convergence Tolerance:
 Convergence Check Mode ConvCheckMode   .... Total+1el-Energy
 Convergence forced     ConvForced      .... 1
 Energy Change          TolE            ....  1.000e-08 Eh
 1-El. energy change                    ....  1.000e-05 Eh
 Orbital Gradient       TolG            ....  1.000e-05
 Orbital Rotation angle TolX            ....  1.000e-05
 DIIS Error             TolErr          ....  5.000e-07


Diagonalization of the overlap matrix:
Smallest eigenvalue                        ... 4.208e-04
Time for diagonalization                   ...    0.014 sec
Threshold for overlap eigenvalues          ... 1.000e-08
Number of eigenvalues below threshold      ... 0
Time for construction of square roots      ...    0.005 sec
Total time needed                          ...    0.020 sec

Time for model grid setup =    0.113 sec

------------------------------
INITIAL GUESS: MODEL POTENTIAL
------------------------------
Loading Hartree-Fock densities                     ... done
Calculating cut-offs                               ... done
Initializing the effective Hamiltonian             ... done
Setting up the integral package (SHARK)            ... done
Starting the Coulomb interaction                   ... done (   0.1 sec)
Reading the grid                                   ... done
Mapping shells                                     ... done
Starting the XC term evaluation                    ... done (   0.0 sec)
Transforming the Hamiltonian                       ... done (   0.0 sec)
Diagonalizing the Hamiltonian                      ... done (   0.0 sec)
Back transforming the eigenvectors                 ... done (   0.0 sec)
Now organizing SCF variables                       ... done
                      ------------------
                      INITIAL GUESS DONE (   0.2 sec)
                      ------------------
--------------
SCF ITERATIONS
--------------
ITER       Energy         Delta-E        Max-DP      RMS-DP      [F,P]     Damp
               ***  Starting incremental Fock matrix formation  ***
  0   -472.9703965549   0.000000000000 0.06289386  0.00242826  0.2427347 0.7000
  1   -473.1007185330  -0.130321978144 0.04589407  0.00186765  0.1500286 0.7000
                               ***Turning on DIIS***
  2   -473.1787911869  -0.078072653902 0.09091751  0.00419357  0.0866994 0.0000
  3   -472.6735378578   0.505253329140 0.02785553  0.00096786  0.0443677 0.0000
  4   -473.3845166595  -0.710978801735 0.00871738  0.00035129  0.0082059 0.0000
  5   -473.3553105739   0.029206085627 0.00354013  0.00015620  0.0048023 0.0000
                      *** Initiating the SOSCF procedure ***
                           *** Shutting down DIIS ***
                      *** Re-Reading the Fockian *** 
                      *** Removing any level shift *** 
ITER      Energy       Delta-E        Grad      Rot      Max-DP    RMS-DP
  6   -473.33729081   0.0180197594  0.001288  0.001288  0.002323  0.000089
               *** Restarting incremental Fock matrix formation ***
  7   -473.34171209  -0.0044212751  0.000704  0.001597  0.001279  0.000048
  8   -473.34173441  -0.0000223217  0.000349  0.002076  0.001797  0.000066
  9   -473.34174501  -0.0000106016  0.000197  0.000249  0.000459  0.000012
 10   -473.34174593  -0.0000009131  0.000066  0.000111  0.000137  0.000005
 11   -473.34174613  -0.0000002042  0.000031  0.000145  0.000084  0.000004
 12   -473.34174618  -0.0000000506  0.000016  0.000066  0.000038  0.000001
 13   -473.34174619  -0.0000000047  0.000005  0.000010  0.000017  0.000000
                 **** Energy Check signals convergence ****
              ***Rediagonalizing the Fockian in SOSCF/NRSCF***

               *****************************************************
               *                     SUCCESS                       *
               *           SCF CONVERGED AFTER  14 CYCLES          *
               *****************************************************


----------------
TOTAL SCF ENERGY
----------------

Total Energy       :         -473.34174619 Eh          -12880.28373 eV

Components:
Nuclear Repulsion  :          496.48596242 Eh           13510.06988 eV
Electronic Energy  :         -969.82770860 Eh          -26390.35361 eV
One Electron Energy:        -1629.98512816 Eh          -44354.15026 eV
Two Electron Energy:          660.15741955 Eh           17963.79665 eV

Virial components:
Potential Energy   :         -945.92363024 Eh          -25739.89057 eV
Kinetic Energy     :          472.58188406 Eh           12859.60683 eV
Virial Ratio       :            2.00160790


---------------
SCF CONVERGENCE
---------------

  Last Energy change         ...   -5.6446e-10  Tolerance :   1.0000e-08
  Last MAX-Density change    ...    6.4906e-06  Tolerance :   1.0000e-07
  Last RMS-Density change    ...    1.6331e-07  Tolerance :   5.0000e-09
  Last Orbital Gradient      ...    1.8966e-06  Tolerance :   1.0000e-05
  Last Orbital Rotation      ...    4.7330e-06  Tolerance :   1.0000e-05

             **** THE GBW FILE WAS UPDATED (geom_opt.gbw) ****
             **** DENSITY geom_opt.scfp WAS UPDATED ****
             **** ENERGY FILE WAS UPDATED (geom_opt.en.tmp) ****
             **** THE GBW FILE WAS UPDATED (geom_opt.gbw) ****
             **** DENSITY geom_opt.scfp WAS UPDATED ****
----------------
ORBITAL ENERGIES
----------------

  NO   OCC          E(Eh)            E(eV) 
   0   2.0000     -20.607521      -560.7592 
   1   2.0000     -20.559049      -559.4402 
   2   2.0000     -15.555017      -423.2735 
   3   2.0000     -11.406128      -310.3765 
   4   2.0000     -11.300077      -307.4907 
   5   2.0000     -11.258504      -306.3595 
   6   2.0000     -11.255673      -306.2824 
   7   2.0000     -11.254545      -306.2518 
   8   2.0000     -11.232059      -305.6399 
   9   2.0000     -11.229549      -305.5716 
  10   2.0000      -1.450652       -39.4742 
  11   2.0000      -1.351447       -36.7748 
  12   2.0000      -1.230933       -33.4954 
  13   2.0000      -1.135670       -30.9032 
  14   2.0000      -1.040385       -28.3103 
  15   2.0000      -0.996764       -27.1233 
  16   2.0000      -0.888856       -24.1870 
  17   2.0000      -0.838435       -22.8150 
  18   2.0000      -0.800111       -21.7721 
  19   2.0000      -0.718448       -19.5500 
  20   2.0000      -0.704531       -19.1713 
  21   2.0000      -0.691525       -18.8173 
  22   2.0000      -0.684271       -18.6199 
  23   2.0000      -0.631051       -17.1718 
  24   2.0000      -0.619770       -16.8648 
  25   2.0000      -0.607376       -16.5275 
  26   2.0000      -0.598703       -16.2915 
  27   2.0000      -0.578964       -15.7544 
  28   2.0000      -0.538912       -14.6646 
  29   2.0000      -0.528963       -14.3938 
  30   2.0000      -0.511091       -13.9075 
  31   2.0000      -0.481821       -13.1110 
  32   2.0000      -0.453029       -12.3275 
  33   2.0000      -0.443507       -12.0684 
  34   2.0000      -0.351272        -9.5586 
  35   2.0000      -0.300539        -8.1781 
  36   0.0000       0.090014         2.4494 
  37   0.0000       0.149726         4.0743 
  38   0.0000       0.223126         6.0716 
  39   0.0000       0.228842         6.2271 
  40   0.0000       0.243291         6.6203 
  41   0.0000       0.255025         6.9396 
  42   0.0000       0.294595         8.0163 
  43   0.0000       0.318523         8.6675 
  44   0.0000       0.335067         9.1176 
  45   0.0000       0.363601         9.8941 
  46   0.0000       0.378874        10.3097 
  47   0.0000       0.414107        11.2684 
  48   0.0000       0.427891        11.6435 
  49   0.0000       0.445066        12.1108 
  50   0.0000       0.492616        13.4048 
  51   0.0000       0.508799        13.8451 
  52   0.0000       0.530273        14.4294 
  53   0.0000       0.574610        15.6359 
  54   0.0000       0.585017        15.9191 
  55   0.0000       0.699736        19.0408 
  56   0.0000       0.722665        19.6647 
  57   0.0000       0.729937        19.8626 
  58   0.0000       0.756299        20.5799 
  59   0.0000       0.766511        20.8578 
  60   0.0000       0.768808        20.9203 
  61   0.0000       0.788559        21.4578 
  62   0.0000       0.822007        22.3680 
  63   0.0000       0.824476        22.4351 
  64   0.0000       0.830641        22.6029 
  65   0.0000       0.840574        22.8732 
  66   0.0000       0.852954        23.2101 
  67   0.0000       0.869176        23.6515 
  68   0.0000       0.902458        24.5571 
  69   0.0000       0.924504        25.1570 
  70   0.0000       0.938066        25.5261 
  71   0.0000       0.967710        26.3327 
  72   0.0000       0.982267        26.7288 
  73   0.0000       1.018186        27.7063 
  74   0.0000       1.066551        29.0223 
  75   0.0000       1.082426        29.4543 
  76   0.0000       1.090437        29.6723 
  77   0.0000       1.101864        29.9832 
  78   0.0000       1.113356        30.2960 
  79   0.0000       1.133492        30.8439 
  80   0.0000       1.159605        31.5544 
  81   0.0000       1.175899        31.9978 
  82   0.0000       1.183974        32.2176 
  83   0.0000       1.197828        32.5945 
  84   0.0000       1.216233        33.0954 
  85   0.0000       1.233994        33.5787 
  86   0.0000       1.266115        34.4527 
  87   0.0000       1.306169        35.5427 
  88   0.0000       1.311787        35.6955 
  89   0.0000       1.313479        35.7416 
  90   0.0000       1.319707        35.9110 
  91   0.0000       1.353047        36.8183 
  92   0.0000       1.380225        37.5578 
  93   0.0000       1.408122        38.3170 
  94   0.0000       1.446558        39.3628 
  95   0.0000       1.495702        40.7001 
  96   0.0000       1.518120        41.3101 
  97   0.0000       1.545241        42.0481 
  98   0.0000       1.572595        42.7925 
  99   0.0000       1.590965        43.2924 
 100   0.0000       1.643258        44.7153 
 101   0.0000       1.666634        45.3514 
 102   0.0000       1.689958        45.9861 
 103   0.0000       1.705264        46.4026 
 104   0.0000       1.720963        46.8298 
 105   0.0000       1.755943        47.7816 
 106   0.0000       1.769561        48.1522 
 107   0.0000       1.842097        50.1260 
 108   0.0000       1.940229        52.7963 
 109   0.0000       1.952370        53.1267 
 110   0.0000       1.973489        53.7014 
 111   0.0000       2.040892        55.5355 
 112   0.0000       2.062981        56.1366 
 113   0.0000       2.070612        56.3442 
 114   0.0000       2.093898        56.9779 
 115   0.0000       2.139248        58.2119 
 116   0.0000       2.163379        58.8685 
 117   0.0000       2.179044        59.2948 
 118   0.0000       2.211243        60.1710 
 119   0.0000       2.217065        60.3294 
 120   0.0000       2.261704        61.5441 
 121   0.0000       2.278500        62.0011 
 122   0.0000       2.301142        62.6172 
 123   0.0000       2.314101        62.9699 
 124   0.0000       2.357843        64.1602 
 125   0.0000       2.402782        65.3830 
 126   0.0000       2.431725        66.1706 
 127   0.0000       2.446850        66.5822 
 128   0.0000       2.510540        68.3153 
 129   0.0000       2.537937        69.0608 
 130   0.0000       2.570580        69.9490 
 131   0.0000       2.596870        70.6644 
 132   0.0000       2.600831        70.7722 
 133   0.0000       2.629420        71.5502 
 134   0.0000       2.706046        73.6352 
 135   0.0000       2.709331        73.7246 
 136   0.0000       2.776532        75.5533 
 137   0.0000       2.802290        76.2542 
 138   0.0000       2.826564        76.9147 
 139   0.0000       2.897162        78.8358 
 140   0.0000       2.937271        79.9272 
 141   0.0000       2.946160        80.1691 
 142   0.0000       2.976014        80.9814 
 143   0.0000       3.006103        81.8002 
 144   0.0000       3.036250        82.6206 
 145   0.0000       3.069363        83.5216 
 146   0.0000       3.123136        84.9848 
 147   0.0000       3.180805        86.5541 
 148   0.0000       3.209404        87.3323 
 149   0.0000       3.247543        88.3701 
 150   0.0000       3.357893        91.3729 
 151   0.0000       3.401834        92.5686 
 152   0.0000       3.567238        97.0695 
 153   0.0000       3.793031       103.2136 

                    ********************************
                    * MULLIKEN POPULATION ANALYSIS *
                    ********************************

-----------------------
MULLIKEN ATOMIC CHARGES
-----------------------
   0 C :   -0.272317
   1 C :    0.354993
   2 C :   -0.156259
   3 C :   -0.212889
   4 C :   -0.252015
   5 C :   -0.155182
   6 H :    0.205651
   7 H :    0.245879
   8 C :    0.885616
   9 H :    0.208795
  10 N :   -0.957483
  11 O :   -0.628510
  12 O :   -0.786778
  13 H :    0.482476
  14 H :    0.216983
  15 H :    0.448828
  16 H :    0.372212
Sum of atomic charges:    0.0000000

--------------------------------
MULLIKEN REDUCED ORBITAL CHARGES
--------------------------------
  0 C s       :     3.148814  s :     3.148814
      pz      :     1.110546  p :     3.080673
      px      :     0.918573
      py      :     1.051554
      dz2     :     0.004556  d :     0.042831
      dxz     :     0.004269
      dyz     :     0.003746
      dx2y2   :     0.014703
      dxy     :     0.015556
  1 C s       :     3.055944  s :     3.055944
      pz      :     0.808949  p :     2.515851
      px      :     0.911599
      py      :     0.795303
      dz2     :     0.005571  d :     0.073212
      dxz     :     0.009842
      dyz     :     0.015741
      dx2y2   :     0.020778
      dxy     :     0.021280
  2 C s       :     3.184235  s :     3.184235
      pz      :     0.890463  p :     2.923473
      px      :     1.095729
      py      :     0.937280
      dz2     :     0.004802  d :     0.048552
      dxz     :     0.002980
      dyz     :     0.009258
      dx2y2   :     0.018124
      dxy     :     0.013388
  3 C s       :     3.127659  s :     3.127659
      pz      :     1.198045  p :     3.041644
      px      :     0.891912
      py      :     0.951687
      dz2     :     0.004249  d :     0.043585
      dxz     :     0.002515
      dyz     :     0.005825
      dx2y2   :     0.017230
      dxy     :     0.013767
  4 C s       :     3.164069  s :     3.164069
      pz      :     1.085631  p :     3.043646
      px      :     0.929146
      py      :     1.028869
      dz2     :     0.004545  d :     0.044300
      dxz     :     0.004991
      dyz     :     0.003361
      dx2y2   :     0.015041
      dxy     :     0.016363
  5 C s       :     3.177964  s :     3.177964
      pz      :     0.886513  p :     2.929602
      px      :     0.980924
      py      :     1.062165
      dz2     :     0.004760  d :     0.047616
      dxz     :     0.007783
      dyz     :     0.004681
      dx2y2   :     0.013229
      dxy     :     0.017162
  6 H s       :     0.794349  s :     0.794349
  7 H s       :     0.754121  s :     0.754121
  8 C s       :     2.919262  s :     2.919262
      pz      :     0.630393  p :     2.060082
      px      :     0.830163
      py      :     0.599526
      dz2     :     0.009246  d :     0.135040
      dxz     :     0.013884
      dyz     :     0.025217
      dx2y2   :     0.045315
      dxy     :     0.041379
  9 H s       :     0.791205  s :     0.791205
 10 N s       :     3.677069  s :     3.677069
      pz      :     1.763674  p :     4.242805
      px      :     1.301833
      py      :     1.177299
      dz2     :     0.002808  d :     0.037609
      dxz     :     0.006307
      dyz     :     0.007033
      dx2y2   :     0.011393
      dxy     :     0.010068
 11 O s       :     3.888212  s :     3.888212
      pz      :     1.512821  p :     4.709218
      px      :     1.704565
      py      :     1.491832
      dz2     :     0.003221  d :     0.031079
      dxz     :     0.004023
      dyz     :     0.008099
      dx2y2   :     0.006657
      dxy     :     0.009080
 12 O s       :     3.894473  s :     3.894473
      pz      :     1.873110  p :     4.863028
      px      :     1.381700
      py      :     1.608218
      dz2     :     0.004799  d :     0.029277
      dxz     :     0.000533
      dyz     :     0.004229
      dx2y2   :     0.011861
      dxy     :     0.007854
 13 H s       :     0.517524  s :     0.517524
 14 H s       :     0.783017  s :     0.783017
 15 H s       :     0.551172  s :     0.551172
 16 H s       :     0.627788  s :     0.627788


                     *******************************
                     * LOEWDIN POPULATION ANALYSIS *
                     *******************************

----------------------
LOEWDIN ATOMIC CHARGES
----------------------
   0 C :   -0.199942
   1 C :    0.109632
   2 C :   -0.073859
   3 C :   -0.148162
   4 C :   -0.197940
   5 C :   -0.064626
   6 H :    0.139505
   7 H :    0.157480
   8 C :    0.297942
   9 H :    0.140350
  10 N :   -0.455559
  11 O :   -0.340322
  12 O :   -0.398380
  13 H :    0.353196
  14 H :    0.144801
  15 H :    0.278712
  16 H :    0.257172

-------------------------------
LOEWDIN REDUCED ORBITAL CHARGES
-------------------------------
  0 C s       :     2.905896  s :     2.905896
      pz      :     1.090620  p :     3.206649
      px      :     1.041359
      py      :     1.074670
      dz2     :     0.007172  d :     0.087396
      dxz     :     0.007813
      dyz     :     0.005963
      dx2y2   :     0.032586
      dxy     :     0.033862
  1 C s       :     2.850666  s :     2.850666
      pz      :     0.832970  p :     2.885251
      px      :     1.059308
      py      :     0.992973
      dz2     :     0.009768  d :     0.154451
      dxz     :     0.019192
      dyz     :     0.031589
      dx2y2   :     0.046785
      dxy     :     0.047117
  2 C s       :     2.919199  s :     2.919199
      pz      :     0.891432  p :     3.058408
      px      :     1.089446
      py      :     1.077531
      dz2     :     0.007150  d :     0.096251
      dxz     :     0.004202
      dyz     :     0.018499
      dx2y2   :     0.037314
      dxy     :     0.029087
  3 C s       :     2.869612  s :     2.869612
      pz      :     1.144682  p :     3.182833
      px      :     0.987278
      py      :     1.050874
      dz2     :     0.007451  d :     0.095717
      dxz     :     0.004569
      dyz     :     0.011132
      dx2y2   :     0.040081
      dxy     :     0.032484
  4 C s       :     2.907111  s :     2.907111
      pz      :     1.069469  p :     3.200281
      px      :     1.057688
      py      :     1.073123
      dz2     :     0.007105  d :     0.090549
      dxz     :     0.009546
      dyz     :     0.005355
      dx2y2   :     0.033126
      dxy     :     0.035416
  5 C s       :     2.918291  s :     2.918291
      pz      :     0.893171  p :     3.051960
      px      :     1.080082
      py      :     1.078707
      dz2     :     0.007008  d :     0.094375
      dxz     :     0.014672
      dyz     :     0.008630
      dx2y2   :     0.028502
      dxy     :     0.035564
  6 H s       :     0.860495  s :     0.860495
  7 H s       :     0.842520  s :     0.842520
  8 C s       :     2.852251  s :     2.852251
      pz      :     0.675993  p :     2.563251
      px      :     0.993152
      py      :     0.894106
      dz2     :     0.019351  d :     0.286557
      dxz     :     0.026483
      dyz     :     0.050101
      dx2y2   :     0.100165
      dxy     :     0.090457
  9 H s       :     0.859650  s :     0.859650
 10 N s       :     3.198347  s :     3.198347
      pz      :     1.734233  p :     4.193580
      px      :     1.255819
      py      :     1.203528
      dz2     :     0.003811  d :     0.063632
      dxz     :     0.007639
      dyz     :     0.010753
      dx2y2   :     0.021412
      dxy     :     0.020017
 11 O s       :     3.557599  s :     3.557599
      pz      :     1.486183  p :     4.729092
      px      :     1.701665
      py      :     1.541244
      dz2     :     0.006677  d :     0.053632
      dxz     :     0.004638
      dyz     :     0.009876
      dx2y2   :     0.012445
      dxy     :     0.019995
 12 O s       :     3.536288  s :     3.536288
      pz      :     1.845625  p :     4.816001
      px      :     1.360431
      py      :     1.609944
      dz2     :     0.006776  d :     0.046091
      dxz     :     0.001340
      dyz     :     0.005260
      dx2y2   :     0.019222
      dxy     :     0.013494
 13 H s       :     0.646804  s :     0.646804
 14 H s       :     0.855199  s :     0.855199
 15 H s       :     0.721288  s :     0.721288
 16 H s       :     0.742828  s :     0.742828


                      *****************************
                      * MAYER POPULATION ANALYSIS *
                      *****************************

  NA   - Mulliken gross atomic population
  ZA   - Total nuclear charge
  QA   - Mulliken gross atomic charge
  VA   - Mayer's total valence
  BVA  - Mayer's bonded valence
  FA   - Mayer's free valence

  ATOM       NA         ZA         QA         VA         BVA        FA
  0 C      6.2723     6.0000    -0.2723     3.8613     3.8613    -0.0000
  1 C      5.6450     6.0000     0.3550     3.8388     3.8388    -0.0000
  2 C      6.1563     6.0000    -0.1563     3.9042     3.9042    -0.0000
  3 C      6.2129     6.0000    -0.2129     3.8474     3.8474     0.0000
  4 C      6.2520     6.0000    -0.2520     3.8750     3.8750     0.0000
  5 C      6.1552     6.0000    -0.1552     3.8792     3.8792    -0.0000
  6 H      0.7943     1.0000     0.2057     0.9272     0.9272     0.0000
  7 H      0.7541     1.0000     0.2459     0.9130     0.9130     0.0000
  8 C      5.1144     6.0000     0.8856     3.7175     3.7175     0.0000
  9 H      0.7912     1.0000     0.2088     0.9250     0.9250    -0.0000
 10 N      7.9575     7.0000    -0.9575     2.6564     2.6564     0.0000
 11 O      8.6285     8.0000    -0.6285     1.8500     1.8500     0.0000
 12 O      8.7868     8.0000    -0.7868     1.6849     1.6849     0.0000
 13 H      0.5175     1.0000     0.4825     0.7519     0.7519     0.0000
 14 H      0.7830     1.0000     0.2170     0.9212     0.9212     0.0000
 15 H      0.5512     1.0000     0.4488     0.7916     0.7916     0.0000
 16 H      0.6278     1.0000     0.3722     0.8319     0.8319     0.0000

  Mayer bond orders larger than 0.100000
B(  0-C ,  1-C ) :   1.3684 B(  0-C ,  2-C ) :   1.4855 B(  0-C ,  9-H ) :   0.9358 
B(  1-C ,  3-C ) :   1.3558 B(  1-C , 10-N ) :   1.0372 B(  2-C ,  4-C ) :   1.4010 
B(  2-C , 14-H ) :   0.9362 B(  3-C ,  5-C ) :   1.3762 B(  3-C ,  8-C ) :   1.0466 
B(  4-C ,  5-C ) :   1.4785 B(  4-C ,  6-H ) :   0.9410 B(  5-C ,  7-H ) :   0.9200 
B(  8-C , 11-O ) :   1.7129 B(  8-C , 12-O ) :   0.9402 B( 10-N , 15-H ) :   0.7383 
B( 10-N , 16-H ) :   0.8277 B( 12-O , 13-H ) :   0.7221 

-------
TIMINGS
-------

Total SCF time: 0 days 0 hours 0 min 14 sec 

Total time                  ....      14.780 sec
Sum of individual times     ....      14.474 sec  ( 97.9%)

Fock matrix formation       ....      14.168 sec  ( 95.9%)
Diagonalization             ....       0.028 sec  (  0.2%)
Density matrix formation    ....       0.003 sec  (  0.0%)
Population analysis         ....       0.012 sec  (  0.1%)
Initial guess               ....       0.103 sec  (  0.7%)
Orbital Transformation      ....       0.000 sec  (  0.0%)
Orbital Orthonormalization  ....       0.000 sec  (  0.0%)
DIIS solution               ....       0.017 sec  (  0.1%)
SOSCF solution              ....       0.030 sec  (  0.2%)

Maximum memory used throughout the entire SCF-calculation: 228.1 MB


           ************************************************************
           *        Program running with 4 parallel MPI-processes     *
           *              working on a common directory               *
           ************************************************************

------------------------------------------------------------------------------
                                ORCA  MP2 
------------------------------------------------------------------------------

Freezing NCore=20 chemical core electrons
MP2 will be done in the AO integral direct mode
The Q1-step will be done using symmetric double matrices
Dimension of the basis                    ...  154
Memory devoted for MP2                    ...  256 MB   
Memory needed for all in one shot         ...   99 MB
Number of MOs that can be treated together...   17      
MP2 density construction                  ... relaxed
The MP2 gradient is requested => amplitudes will be stored on disk
Total number of MOs              ...   26
Number of MOs treated per batch  ...    7 
Number of batches necessary      ...    1 
OPERATORS   0/  0 PASS   0
-----------------------------------------------
 MP2 CORRELATION ENERGY   :     -1.383917459 Eh
-----------------------------------------------


---------------------
MP2 DENSITY FORMATION
---------------------

Completing the external part of the density      ... done
Storing the unrelaxed density                    ... done

Calculating G(D)                                 ... done
Completing the Lagrangian                        ... done
Solving the Z-vector equations                   ... 

------------------------------------------------------------------------------
                           ORCA CP-SCF CALCULATION
------------------------------------------------------------------------------

Input orbitals are from        ... geom_opt.gbw
Input Perturbation             ... geom_opt.pin.tmp
Wavefunction output            ... geom_opt.pout.tmp
Perturbation mode              ... Real perturbation (singlet)
Solver                         ... POPLE
Max. number of iterations      ... 128
Convergence tolerance          ... 1.000e-04
Integral handling              ... Direct
Number of perturbations        ... 1
Number of operators            ... 1
Orbital ranges used for CP-SCF:
 Operator 0:  Orbitals   0... 35  to  36...153
Variables per perturbation     ... 4248
Memory available               ... 1003.5 MB
Memory needed per perturbation ...   2.7 MB
Perturbations treated per batch... 1
Number of batches              ... 1
     CP-SCF ITERATION   0:   1.2822e-01 (   1.1 sec)
     CP-SCF ITERATION   1:   5.3299e-02 (   1.1 sec)
     CP-SCF ITERATION   2:   3.2091e-02 (   1.2 sec)
     CP-SCF ITERATION   3:   1.1363e-02 (   1.1 sec)
     CP-SCF ITERATION   4:   4.9446e-03 (   1.2 sec)
     CP-SCF ITERATION   5:   1.6098e-03 (   1.3 sec)
     CP-SCF ITERATION   6:   4.6445e-04 (   1.2 sec)
     CP-SCF ITERATION   7:   1.5658e-04 (   1.2 sec)
     CP-SCF ITERATION   8:   4.6907e-05 (   1.2 sec)
                    *** THE CP-SCF HAS CONVERGED ***
                                                 ... done
Finalizing the relaxed density                   ... done
Transforming P to the AO basis                   ... done
Storing the relaxed density                      ... done

------------------------------------
ENERGY WEIGHTED DENSITY FINALIZATION
------------------------------------

Gathering the parts of the W-matrix              ...                                                      done
Forming the Z-density                            ... done
Transforming Z to the AO basis                   ... done
Calculating G(Z)                                 ... done
Finalizing the W-matrix                          ...                                                      done
Transforming W to the AO basis and storing       ... done

                *********************************************
                * UNRELAXED MP2 DENSITY POPULATION ANALYSIS *
                *********************************************

------------------------------------------------------------------------------
                           ORCA POPULATION ANALYSIS
------------------------------------------------------------------------------
Input electron density              ... geom_opt.pmp2ur
BaseName (.gbw .S,...)              ... geom_opt

                    ********************************
                    * MULLIKEN POPULATION ANALYSIS *
                    ********************************

-----------------------
MULLIKEN ATOMIC CHARGES
-----------------------
   0 C :   -0.269398
   1 C :    0.341251
   2 C :   -0.163843
   3 C :   -0.208013
   4 C :   -0.248856
   5 C :   -0.163272
   6 H :    0.208037
   7 H :    0.247803
   8 C :    0.851167
   9 H :    0.211216
  10 N :   -0.947168
  11 O :   -0.603779
  12 O :   -0.772700
  13 H :    0.479852
  14 H :    0.219173
  15 H :    0.446623
  16 H :    0.371908
Sum of atomic charges:   -0.0000000

--------------------------------
MULLIKEN REDUCED ORBITAL CHARGES
--------------------------------
  0 C s       :     3.149038  s :     3.149038
      pz      :     1.098734  p :     3.060154
      px      :     0.914922
      py      :     1.046499
      dz2     :     0.007578  d :     0.060206
      dxz     :     0.008247
      dyz     :     0.007359
      dx2y2   :     0.017912
      dxy     :     0.019109
  1 C s       :     3.055589  s :     3.055589
      pz      :     0.815754  p :     2.514790
      px      :     0.906267
      py      :     0.792769
      dz2     :     0.007938  d :     0.088371
      dxz     :     0.013299
      dyz     :     0.018741
      dx2y2   :     0.023919
      dxy     :     0.024474
  2 C s       :     3.182483  s :     3.182483
      pz      :     0.893957  p :     2.916914
      px      :     1.090575
      py      :     0.932383
      dz2     :     0.007349  d :     0.064446
      dxz     :     0.006017
      dyz     :     0.012809
      dx2y2   :     0.021726
      dxy     :     0.016545
  3 C s       :     3.128817  s :     3.128817
      pz      :     1.182418  p :     3.017145
      px      :     0.887958
      py      :     0.946769
      dz2     :     0.007521  d :     0.062052
      dxz     :     0.006549
      dyz     :     0.010154
      dx2y2   :     0.020664
      dxy     :     0.017163
  4 C s       :     3.163797  s :     3.163797
      pz      :     1.074338  p :     3.023592
      px      :     0.924993
      py      :     1.024262
      dz2     :     0.007494  d :     0.061467
      dxz     :     0.008975
      dyz     :     0.006863
      dx2y2   :     0.018325
      dxy     :     0.019809
  5 C s       :     3.176525  s :     3.176525
      pz      :     0.890519  p :     2.923218
      px      :     0.975870
      py      :     1.056829
      dz2     :     0.007315  d :     0.063529
      dxz     :     0.011187
      dyz     :     0.007863
      dx2y2   :     0.016510
      dxy     :     0.020652
  6 H s       :     0.791963  s :     0.791963
  7 H s       :     0.752197  s :     0.752197
  8 C s       :     2.921311  s :     2.921311
      pz      :     0.647932  p :     2.082089
      px      :     0.829870
      py      :     0.604287
      dz2     :     0.010981  d :     0.145433
      dxz     :     0.016390
      dyz     :     0.027038
      dx2y2   :     0.047467
      dxy     :     0.043557
  9 H s       :     0.788784  s :     0.788784
 10 N s       :     3.672333  s :     3.672333
      pz      :     1.749082  p :     4.214701
      px      :     1.294942
      py      :     1.170676
      dz2     :     0.007607  d :     0.060135
      dxz     :     0.010935
      dyz     :     0.011896
      dx2y2   :     0.015514
      dxy     :     0.014182
 11 O s       :     3.883595  s :     3.883595
      pz      :     1.495390  p :     4.667086
      px      :     1.690841
      py      :     1.480855
      dz2     :     0.007439  d :     0.053098
      dxz     :     0.008433
      dyz     :     0.012439
      dx2y2   :     0.011426
      dxy     :     0.013361
 12 O s       :     3.890257  s :     3.890257
      pz      :     1.859562  p :     4.830489
      px      :     1.374055
      py      :     1.596871
      dz2     :     0.009317  d :     0.051955
      dxz     :     0.005246
      dyz     :     0.008892
      dx2y2   :     0.016293
      dxy     :     0.012208
 13 H s       :     0.520148  s :     0.520148
 14 H s       :     0.780827  s :     0.780827
 15 H s       :     0.553377  s :     0.553377
 16 H s       :     0.628092  s :     0.628092


                     *******************************
                     * LOEWDIN POPULATION ANALYSIS *
                     *******************************

----------------------
LOEWDIN ATOMIC CHARGES
----------------------
   0 C :   -0.197417
   1 C :    0.098808
   2 C :   -0.082995
   3 C :   -0.143093
   4 C :   -0.195653
   5 C :   -0.073812
   6 H :    0.142918
   7 H :    0.160617
   8 C :    0.271670
   9 H :    0.143811
  10 N :   -0.452639
  11 O :   -0.319879
  12 O :   -0.390022
  13 H :    0.352161
  14 H :    0.148056
  15 H :    0.278933
  16 H :    0.258535

-------------------------------
LOEWDIN REDUCED ORBITAL CHARGES
-------------------------------
  0 C s       :     2.906576  s :     2.906576
      pz      :     1.079082  p :     3.182375
      px      :     1.034753
      py      :     1.068540
      dz2     :     0.011400  d :     0.108466
      dxz     :     0.012130
      dyz     :     0.009775
      dx2y2   :     0.036972
      dxy     :     0.038190
  1 C s       :     2.851088  s :     2.851088
      pz      :     0.838449  p :     2.877612
      px      :     1.051762
      py      :     0.987401
      dz2     :     0.013446  d :     0.172491
      dxz     :     0.022687
      dyz     :     0.034379
      dx2y2   :     0.050870
      dxy     :     0.051108
  2 C s       :     2.919347  s :     2.919347
      pz      :     0.894289  p :     3.048426
      px      :     1.084076
      py      :     1.070061
      dz2     :     0.010764  d :     0.115222
      dxz     :     0.007349
      dyz     :     0.022079
      dx2y2   :     0.041449
      dxy     :     0.033580
  3 C s       :     2.870669  s :     2.870669
      pz      :     1.130671  p :     3.154356
      px      :     0.980835
      py      :     1.042851
      dz2     :     0.012140  d :     0.118067
      dxz     :     0.008881
      dyz     :     0.015712
      dx2y2   :     0.044201
      dxy     :     0.037133
  4 C s       :     2.907896  s :     2.907896
      pz      :     1.058351  p :     3.176566
      px      :     1.050808
      py      :     1.067407
      dz2     :     0.011232  d :     0.111191
      dxz     :     0.013807
      dyz     :     0.009031
      dx2y2   :     0.037470
      dxy     :     0.039650
  5 C s       :     2.918409  s :     2.918409
      pz      :     0.896195  p :     3.041870
      px      :     1.073012
      py      :     1.072662
      dz2     :     0.010639  d :     0.113532
      dxz     :     0.018121
      dyz     :     0.011924
      dx2y2   :     0.033052
      dxy     :     0.039797
  6 H s       :     0.857082  s :     0.857082
  7 H s       :     0.839383  s :     0.839383
  8 C s       :     2.853349  s :     2.853349
      pz      :     0.691527  p :     2.576781
      px      :     0.989593
      py      :     0.895661
      dz2     :     0.022244  d :     0.298199
      dxz     :     0.028974
      dyz     :     0.051729
      dx2y2   :     0.101979
      dxy     :     0.093273
  9 H s       :     0.856189  s :     0.856189
 10 N s       :     3.197638  s :     3.197638
      pz      :     1.719641  p :     4.166196
      px      :     1.250023
      py      :     1.196533
      dz2     :     0.009138  d :     0.088805
      dxz     :     0.012541
      dyz     :     0.015912
      dx2y2   :     0.026295
      dxy     :     0.024918
 11 O s       :     3.554478  s :     3.554478
      pz      :     1.469536  p :     4.687152
      px      :     1.687880
      py      :     1.529736
      dz2     :     0.011335  d :     0.078249
      dxz     :     0.009228
      dyz     :     0.014653
      dx2y2   :     0.017589
      dxy     :     0.025445
 12 O s       :     3.534355  s :     3.534355
      pz      :     1.832262  p :     4.785229
      px      :     1.353555
      py      :     1.599412
      dz2     :     0.011662  d :     0.070439
      dxz     :     0.006107
      dyz     :     0.010057
      dx2y2   :     0.024102
      dxy     :     0.018511
 13 H s       :     0.647839  s :     0.647839
 14 H s       :     0.851944  s :     0.851944
 15 H s       :     0.721067  s :     0.721067
 16 H s       :     0.741465  s :     0.741465


                      *****************************
                      * MAYER POPULATION ANALYSIS *
                      *****************************

  NA   - Mulliken gross atomic population
  ZA   - Total nuclear charge
  QA   - Mulliken gross atomic charge
  VA   - Mayer's total valence
  BVA  - Mayer's bonded valence
  FA   - Mayer's free valence

  ATOM       NA         ZA         QA         VA         BVA        FA
  0 C      6.2694     6.0000    -0.2694     3.9466     3.6073     0.3392
  1 C      5.6587     6.0000     0.3413     3.8866     3.5672     0.3194
  2 C      6.1638     6.0000    -0.1638     3.9743     3.6513     0.3230
  3 C      6.2080     6.0000    -0.2080     3.9278     3.5710     0.3568
  4 C      6.2489     6.0000    -0.2489     3.9557     3.6231     0.3326
  5 C      6.1633     6.0000    -0.1633     3.9514     3.6203     0.3311
  6 H      0.7920     1.0000     0.2080     0.9298     0.8921     0.0377
  7 H      0.7522     1.0000     0.2478     0.9154     0.8790     0.0364
  8 C      5.1488     6.0000     0.8512     3.7730     3.4775     0.2955
  9 H      0.7888     1.0000     0.2112     0.9277     0.8896     0.0381
 10 N      7.9472     7.0000    -0.9472     2.8647     2.5245     0.3402
 11 O      8.6038     8.0000    -0.6038     2.1257     1.7141     0.4116
 12 O      8.7727     8.0000    -0.7727     1.9556     1.5891     0.3665
 13 H      0.5201     1.0000     0.4799     0.7558     0.7195     0.0362
 14 H      0.7808     1.0000     0.2192     0.9235     0.8869     0.0366
 15 H      0.5534     1.0000     0.4466     0.7947     0.7605     0.0343
 16 H      0.6281     1.0000     0.3719     0.8339     0.7982     0.0357

  Mayer bond orders larger than 0.100000
B(  0-C ,  1-C ) :   1.2779 B(  0-C ,  2-C ) :   1.3833 B(  0-C ,  9-H ) :   0.9019 
B(  1-C ,  3-C ) :   1.2626 B(  1-C , 10-N ) :   0.9781 B(  2-C ,  4-C ) :   1.3101 
B(  2-C , 14-H ) :   0.9031 B(  3-C ,  5-C ) :   1.2828 B(  3-C ,  8-C ) :   0.9873 
B(  4-C ,  5-C ) :   1.3758 B(  4-C ,  6-H ) :   0.9072 B(  5-C ,  7-H ) :   0.8873 
B(  8-C , 11-O ) :   1.5968 B(  8-C , 12-O ) :   0.8844 B( 10-N , 15-H ) :   0.7102 
B( 10-N , 16-H ) :   0.7962 B( 12-O , 13-H ) :   0.6920 


                *******************************************
                * RELAXED MP2 DENSITY POPULATION ANALYSIS *
                *******************************************

------------------------------------------------------------------------------
                           ORCA POPULATION ANALYSIS
------------------------------------------------------------------------------
Input electron density              ... geom_opt.pmp2re
BaseName (.gbw .S,...)              ... geom_opt

                    ********************************
                    * MULLIKEN POPULATION ANALYSIS *
                    ********************************

-----------------------
MULLIKEN ATOMIC CHARGES
-----------------------
   0 C :   -0.195494
   1 C :    0.240197
   2 C :   -0.181468
   3 C :   -0.071478
   4 C :   -0.170460
   5 C :   -0.198958
   6 H :    0.177106
   7 H :    0.202237
   8 C :    0.613054
   9 H :    0.178159
  10 N :   -0.854049
  11 O :   -0.460759
  12 O :   -0.666124
  13 H :    0.452018
  14 H :    0.178361
  15 H :    0.404862
  16 H :    0.352795
Sum of atomic charges:   -0.0000000

--------------------------------
MULLIKEN REDUCED ORBITAL CHARGES
--------------------------------
  0 C s       :     3.156484  s :     3.156484
      pz      :     1.022601  p :     2.983302
      px      :     0.939802
      py      :     1.020899
      dz2     :     0.007002  d :     0.055709
      dxz     :     0.008739
      dyz     :     0.007208
      dx2y2   :     0.015575
      dxy     :     0.017185
  1 C s       :     3.056217  s :     3.056217
      pz      :     0.923612  p :     2.623388
      px      :     0.899742
      py      :     0.800034
      dz2     :     0.006941  d :     0.080198
      dxz     :     0.011760
      dyz     :     0.017672
      dx2y2   :     0.021664
      dxy     :     0.022160
  2 C s       :     3.176919  s :     3.176919
      pz      :     0.981404  p :     2.947275
      px      :     1.040542
      py      :     0.925329
      dz2     :     0.006456  d :     0.057274
      dxz     :     0.005310
      dyz     :     0.011163
      dx2y2   :     0.019779
      dxy     :     0.014566
  3 C s       :     3.131097  s :     3.131097
      pz      :     1.080106  p :     2.882831
      px      :     0.880950
      py      :     0.921775
      dz2     :     0.006951  d :     0.057550
      dxz     :     0.007000
      dyz     :     0.010811
      dx2y2   :     0.018010
      dxy     :     0.014778
  4 C s       :     3.168098  s :     3.168098
      pz      :     0.999071  p :     2.945179
      px      :     0.944325
      py      :     1.001783
      dz2     :     0.006887  d :     0.057183
      dxz     :     0.009431
      dyz     :     0.006795
      dx2y2   :     0.016165
      dxy     :     0.017905
  5 C s       :     3.179137  s :     3.179137
      pz      :     0.981872  p :     2.963573
      px      :     0.955427
      py      :     1.026274
      dz2     :     0.006421  d :     0.056247
      dxz     :     0.009569
      dyz     :     0.006974
      dx2y2   :     0.014672
      dxy     :     0.018611
  6 H s       :     0.822894  s :     0.822894
  7 H s       :     0.797763  s :     0.797763
  8 C s       :     2.960443  s :     2.960443
      pz      :     0.772689  p :     2.290229
      px      :     0.866878
      py      :     0.650662
      dz2     :     0.009992  d :     0.136275
      dxz     :     0.014720
      dyz     :     0.025278
      dx2y2   :     0.044800
      dxy     :     0.041486
  9 H s       :     0.821841  s :     0.821841
 10 N s       :     3.636505  s :     3.636505
      pz      :     1.712974  p :     4.161713
      px      :     1.271025
      py      :     1.177714
      dz2     :     0.007516  d :     0.055831
      dxz     :     0.010250
      dyz     :     0.011877
      dx2y2   :     0.013745
      dxy     :     0.012444
 11 O s       :     3.859762  s :     3.859762
      pz      :     1.425223  p :     4.550603
      px      :     1.658498
      py      :     1.466882
      dz2     :     0.007170  d :     0.050394
      dxz     :     0.007985
      dyz     :     0.011567
      dx2y2   :     0.011442
      dxy     :     0.012230
 12 O s       :     3.870201  s :     3.870201
      pz      :     1.817240  p :     4.746568
      px      :     1.345933
      py      :     1.583395
      dz2     :     0.008896  d :     0.049355
      dxz     :     0.005228
      dyz     :     0.009114
      dx2y2   :     0.015332
      dxy     :     0.010784
 13 H s       :     0.547982  s :     0.547982
 14 H s       :     0.821639  s :     0.821639
 15 H s       :     0.595138  s :     0.595138
 16 H s       :     0.647205  s :     0.647205


                     *******************************
                     * LOEWDIN POPULATION ANALYSIS *
                     *******************************

----------------------
LOEWDIN ATOMIC CHARGES
----------------------
   0 C :   -0.154240
   1 C :    0.041800
   2 C :   -0.131712
   3 C :   -0.097194
   4 C :   -0.152550
   5 C :   -0.123738
   6 H :    0.143709
   7 H :    0.154611
   8 C :    0.184157
   9 H :    0.144368
  10 N :   -0.429619
  11 O :   -0.239300
  12 O :   -0.351640
  13 H :    0.342442
  14 H :    0.143352
  15 H :    0.268950
  16 H :    0.256604

-------------------------------
LOEWDIN REDUCED ORBITAL CHARGES
-------------------------------
  0 C s       :     2.915283  s :     2.915283
      pz      :     1.015686  p :     3.134243
      px      :     1.044466
      py      :     1.074090
      dz2     :     0.010807  d :     0.104713
      dxz     :     0.013576
      dyz     :     0.010176
      dx2y2   :     0.034134
      dxy     :     0.036019
  1 C s       :     2.851052  s :     2.851052
      pz      :     0.922859  p :     2.942077
      px      :     1.041065
      py      :     0.978154
      dz2     :     0.012577  d :     0.165071
      dxz     :     0.020148
      dyz     :     0.032775
      dx2y2   :     0.049781
      dxy     :     0.049791
  2 C s       :     2.917464  s :     2.917464
      pz      :     0.969162  p :     3.105957
      px      :     1.076299
      py      :     1.060496
      dz2     :     0.010048  d :     0.108290
      dxz     :     0.006513
      dyz     :     0.019495
      dx2y2   :     0.039975
      dxy     :     0.032259
  3 C s       :     2.881876  s :     2.881876
      pz      :     1.057241  p :     3.100289
      px      :     0.992782
      py      :     1.050265
      dz2     :     0.011625  d :     0.115030
      dxz     :     0.009960
      dyz     :     0.017293
      dx2y2   :     0.041373
      dxy     :     0.034779
  4 C s       :     2.915816  s :     2.915816
      pz      :     0.995711  p :     3.129018
      px      :     1.061793
      py      :     1.071514
      dz2     :     0.010614  d :     0.107716
      dxz     :     0.015268
      dyz     :     0.009431
      dx2y2   :     0.034870
      dxy     :     0.037533
  5 C s       :     2.917560  s :     2.917560
      pz      :     0.972459  p :     3.099904
      px      :     1.063092
      py      :     1.064353
      dz2     :     0.009922  d :     0.106274
      dxz     :     0.015740
      dyz     :     0.010459
      dx2y2   :     0.031920
      dxy     :     0.038233
  6 H s       :     0.856291  s :     0.856291
  7 H s       :     0.845389  s :     0.845389
  8 C s       :     2.858381  s :     2.858381
      pz      :     0.786194  p :     2.667216
      px      :     0.981160
      py      :     0.899863
      dz2     :     0.021356  d :     0.290246
      dxz     :     0.025848
      dyz     :     0.049369
      dx2y2   :     0.100167
      dxy     :     0.093506
  9 H s       :     0.855632  s :     0.855632
 10 N s       :     3.197129  s :     3.197129
      pz      :     1.692218  p :     4.146527
      px      :     1.249459
      py      :     1.204850
      dz2     :     0.009153  d :     0.085963
      dxz     :     0.012256
      dyz     :     0.016599
      dx2y2   :     0.024772
      dxy     :     0.023183
 11 O s       :     3.557174  s :     3.557174
      pz      :     1.411440  p :     4.604137
      px      :     1.666748
      py      :     1.525949
      dz2     :     0.011197  d :     0.077989
      dxz     :     0.009276
      dyz     :     0.015063
      dx2y2   :     0.018025
      dxy     :     0.024428
 12 O s       :     3.539804  s :     3.539804
      pz      :     1.796951  p :     4.741465
      px      :     1.346614
      py      :     1.597900
      dz2     :     0.011712  d :     0.070371
      dxz     :     0.006298
      dyz     :     0.010839
      dx2y2   :     0.023729
      dxy     :     0.017793
 13 H s       :     0.657558  s :     0.657558
 14 H s       :     0.856648  s :     0.856648
 15 H s       :     0.731050  s :     0.731050
 16 H s       :     0.743396  s :     0.743396


                      *****************************
                      * MAYER POPULATION ANALYSIS *
                      *****************************

  NA   - Mulliken gross atomic population
  ZA   - Total nuclear charge
  QA   - Mulliken gross atomic charge
  VA   - Mayer's total valence
  BVA  - Mayer's bonded valence
  FA   - Mayer's free valence

  ATOM       NA         ZA         QA         VA         BVA        FA
  0 C      6.1955     6.0000    -0.1955     3.9941     3.6683     0.3259
  1 C      5.7598     6.0000     0.2402     3.9870     3.6833     0.3037
  2 C      6.1815     6.0000    -0.1815     4.0222     3.7121     0.3102
  3 C      6.0715     6.0000    -0.0715     3.9785     3.6404     0.3381
  4 C      6.1705     6.0000    -0.1705     3.9960     3.6765     0.3196
  5 C      6.1990     6.0000    -0.1990     3.9989     3.6800     0.3188
  6 H      0.8229     1.0000     0.1771     0.9349     0.8968     0.0381
  7 H      0.7978     1.0000     0.2022     0.9305     0.8942     0.0362
[...]
  8 C      5.1453     6.0000     0.8547     3.7865     3.4949     0.2916
  9 H      0.7961     1.0000     0.2039     0.9305     0.8915     0.0390
 10 N      7.9504     7.0000    -0.9504     2.8724     2.5292     0.3431
 11 O      8.6258     8.0000    -0.6258     2.1122     1.7002     0.4120
 12 O      8.7565     8.0000    -0.7565     1.9778     1.6119     0.3659
 13 H      0.5220     1.0000     0.4780     0.7600     0.7214     0.0386
 14 H      0.7824     1.0000     0.2176     0.9244     0.8871     0.0372
 15 H      0.5590     1.0000     0.4410     0.7978     0.7630     0.0348
 16 H      0.6301     1.0000     0.3699     0.8346     0.7977     0.0369

  Mayer bond orders larger than 0.100000
B(  0-C ,  1-C ) :   1.2570 B(  0-C ,  2-C ) :   1.4035 B(  0-C ,  9-H ) :   0.9034 
B(  1-C ,  3-C ) :   1.2647 B(  1-C , 10-N ) :   0.9723 B(  2-C ,  4-C ) :   1.2923 
B(  2-C , 14-H ) :   0.9035 B(  3-C ,  5-C ) :   1.2760 B(  3-C ,  8-C ) :   1.0035 
B(  4-C ,  5-C ) :   1.3908 B(  4-C ,  6-H ) :   0.9069 B(  5-C ,  7-H ) :   0.8824 
B(  8-C , 11-O ) :   1.5848 B(  8-C , 12-O ) :   0.9042 B( 10-N , 15-H ) :   0.7193 
B( 10-N , 16-H ) :   0.7974 B( 12-O , 13-H ) :   0.6937 


                *******************************************
                * RELAXED MP2 DENSITY POPULATION ANALYSIS *
                *******************************************

------------------------------------------------------------------------------
                           ORCA POPULATION ANALYSIS
------------------------------------------------------------------------------
Input electron density              ... geom_opt.pmp2re
BaseName (.gbw .S,...)              ... geom_opt

                    ********************************
                    * MULLIKEN POPULATION ANALYSIS *
                    ********************************

-----------------------
MULLIKEN ATOMIC CHARGES
-----------------------
   0 C :   -0.195043
   1 C :    0.263027
   2 C :   -0.179704
   3 C :   -0.084366
   4 C :   -0.173891
   5 C :   -0.190925
   6 H :    0.176584
   7 H :    0.207277
   8 C :    0.610250
   9 H :    0.170864
  10 N :   -0.854367
  11 O :   -0.479269
  12 O :   -0.646602
  13 H :    0.447899
  14 H :    0.176680
  15 H :    0.401288
  16 H :    0.350301
Sum of atomic charges:    0.0000000

--------------------------------
MULLIKEN REDUCED ORBITAL CHARGES
--------------------------------
  0 C s       :     3.158734  s :     3.158734
      pz      :     1.024034  p :     2.980406
      px      :     0.939452
      py      :     1.016921
      dz2     :     0.007014  d :     0.055903
      dxz     :     0.008576
      dyz     :     0.007392
      dx2y2   :     0.015718
      dxy     :     0.017202
  1 C s       :     3.047352  s :     3.047352
      pz      :     0.920335  p :     2.609368
      px      :     0.901528
      py      :     0.787505
      dz2     :     0.006903  d :     0.080254
      dxz     :     0.011574
      dyz     :     0.018146
      dx2y2   :     0.021623
      dxy     :     0.022008
  2 C s       :     3.174570  s :     3.174570
      pz      :     0.984010  p :     2.947628
      px      :     1.039011
      py      :     0.924607
      dz2     :     0.006419  d :     0.057506
      dxz     :     0.005305
      dyz     :     0.011369
      dx2y2   :     0.019786
      dxy     :     0.014628
  3 C s       :     3.130936  s :     3.130936
      pz      :     1.080647  p :     2.894870
      px      :     0.896108
      py      :     0.918115
      dz2     :     0.007008  d :     0.058560
      dxz     :     0.007195
      dyz     :     0.011059
      dx2y2   :     0.018506
      dxy     :     0.014793
  4 C s       :     3.168956  s :     3.168956
      pz      :     0.999547  p :     2.947532
      px      :     0.946939
      py      :     1.001046
      dz2     :     0.006871  d :     0.057403
      dxz     :     0.009567
      dyz     :     0.006764
      dx2y2   :     0.016272
      dxy     :     0.017929
  5 C s       :     3.170132  s :     3.170132
      pz      :     0.979045  p :     2.963781
      px      :     0.956108
      py      :     1.028628
      dz2     :     0.006436  d :     0.057011
      dxz     :     0.009665
      dyz     :     0.007137
      dx2y2   :     0.014585
      dxy     :     0.019187
  6 H s       :     0.823416  s :     0.823416
  7 H s       :     0.792723  s :     0.792723
  8 C s       :     2.930461  s :     2.930461
      pz      :     0.780554  p :     2.317490
      px      :     0.892291
      py      :     0.644645
      dz2     :     0.009150  d :     0.141799
      dxz     :     0.014693
      dyz     :     0.026904
      dx2y2   :     0.050222
      dxy     :     0.040830
  9 H s       :     0.829136  s :     0.829136
 10 N s       :     3.642289  s :     3.642289
      pz      :     1.723570  p :     4.156986
      px      :     1.268822
      py      :     1.164594
      dz2     :     0.007580  d :     0.055092
      dxz     :     0.009835
      dyz     :     0.011154
      dx2y2   :     0.013491
      dxy     :     0.013031
 11 O s       :     3.861434  s :     3.861434
      pz      :     1.438403  p :     4.567826
      px      :     1.651396
      py      :     1.478027
      dz2     :     0.006825  d :     0.050009
      dxz     :     0.007969
      dyz     :     0.011494
      dx2y2   :     0.011373
      dxy     :     0.012348
 12 O s       :     3.875885  s :     3.875885
      pz      :     1.811534  p :     4.718511
      px      :     1.366513
      py      :     1.540464
      dz2     :     0.009001  d :     0.052206
      dxz     :     0.005135
      dyz     :     0.009817
      dx2y2   :     0.017114
      dxy     :     0.011141
 13 H s       :     0.552101  s :     0.552101
 14 H s       :     0.823320  s :     0.823320
 15 H s       :     0.598712  s :     0.598712
 16 H s       :     0.649699  s :     0.649699


                     *******************************
                     * LOEWDIN POPULATION ANALYSIS *
                     *******************************

----------------------
LOEWDIN ATOMIC CHARGES
----------------------
   0 C :   -0.153371
   1 C :    0.042943
   2 C :   -0.132176
   3 C :   -0.100118
   4 C :   -0.152845
   5 C :   -0.124832
   6 H :    0.143248
   7 H :    0.156351
   8 C :    0.163279
   9 H :    0.140832
  10 N :   -0.418113
  11 O :   -0.254967
  12 O :   -0.324267
  13 H :    0.344646
  14 H :    0.142712
  15 H :    0.271582
  16 H :    0.255096

-------------------------------
LOEWDIN REDUCED ORBITAL CHARGES
-------------------------------
  0 C s       :     2.915754  s :     2.915754
      pz      :     1.017086  p :     3.132606
      px      :     1.041050
      py      :     1.074470
      dz2     :     0.010797  d :     0.105011
      dxz     :     0.013216
      dyz     :     0.010580
      dx2y2   :     0.034482
      dxy     :     0.035937
  1 C s       :     2.850422  s :     2.850422
      pz      :     0.921686  p :     2.941032
      px      :     1.040477
      py      :     0.978868
      dz2     :     0.012586  d :     0.165603
      dxz     :     0.019760
      dyz     :     0.033993
      dx2y2   :     0.049928
      dxy     :     0.049337
  2 C s       :     2.916187  s :     2.916187
      pz      :     0.971392  p :     3.106933
      px      :     1.074474
      py      :     1.061067
      dz2     :     0.010031  d :     0.109056
      dxz     :     0.006470
      dyz     :     0.019916
      dx2y2   :     0.040253
      dxy     :     0.032386
  3 C s       :     2.874823  s :     2.874823
      pz      :     1.056331  p :     3.106452
      px      :     1.002212
      py      :     1.047908
      dz2     :     0.011949  d :     0.118844
      dxz     :     0.010467
      dyz     :     0.017751
      dx2y2   :     0.043288
      dxy     :     0.035389
  4 C s       :     2.914502  s :     2.914502
      pz      :     0.996032  p :     3.129982
      px      :     1.065082
      py      :     1.068867
      dz2     :     0.010646  d :     0.108361
      dxz     :     0.015537
      dyz     :     0.009312
      dx2y2   :     0.035017
      dxy     :     0.037849
  5 C s       :     2.913933  s :     2.913933
      pz      :     0.969988  p :     3.102320
      px      :     1.066678
      py      :     1.065654
      dz2     :     0.010036  d :     0.108579
      dxz     :     0.015992
      dyz     :     0.010893
      dx2y2   :     0.032037
      dxy     :     0.039620
  6 H s       :     0.856752  s :     0.856752
  7 H s       :     0.843649  s :     0.843649
  8 C s       :     2.842659  s :     2.842659
      pz      :     0.786207  p :     2.689110
      px      :     0.993473
      py      :     0.909429
      dz2     :     0.020711  d :     0.304953
      dxz     :     0.025492
      dyz     :     0.052264
      dx2y2   :     0.114121
      dxy     :     0.092365
  9 H s       :     0.859168  s :     0.859168
 10 N s       :     3.195097  s :     3.195097
      pz      :     1.701071  p :     4.137192
      px      :     1.247095
      py      :     1.189026
      dz2     :     0.009095  d :     0.085825
      dxz     :     0.011683
      dyz     :     0.015693
      dx2y2   :     0.024673
      dxy     :     0.024681
 11 O s       :     3.560891  s :     3.560891
      pz      :     1.423935  p :     4.617167
      px      :     1.661182
      py      :     1.532049
      dz2     :     0.011012  d :     0.076910
      dxz     :     0.009046
      dyz     :     0.014229
      dx2y2   :     0.017925
      dxy     :     0.024698
 12 O s       :     3.539983  s :     3.539983
      pz      :     1.788164  p :     4.708877
      px      :     1.357089
      py      :     1.563624
      dz2     :     0.012247  d :     0.075407
      dxz     :     0.006010
      dyz     :     0.011675
      dx2y2   :     0.027133
      dxy     :     0.018342
 13 H s       :     0.655354  s :     0.655354
 14 H s       :     0.857288  s :     0.857288
 15 H s       :     0.728418  s :     0.728418
 16 H s       :     0.744904  s :     0.744904


                      *****************************
                      * MAYER POPULATION ANALYSIS *
                      *****************************

  NA   - Mulliken gross atomic population
  ZA   - Total nuclear charge
  QA   - Mulliken gross atomic charge
  VA   - Mayer's total valence
  BVA  - Mayer's bonded valence
  FA   - Mayer's free valence

  ATOM       NA         ZA         QA         VA         BVA        FA
  0 C      6.1950     6.0000    -0.1950     3.9975     3.6722     0.3253
  1 C      5.7370     6.0000     0.2630     3.9679     3.6666     0.3012
  2 C      6.1797     6.0000    -0.1797     4.0205     3.7112     0.3093
  3 C      6.0844     6.0000    -0.0844     3.9964     3.6621     0.3343
  4 C      6.1739     6.0000    -0.1739     3.9968     3.6779     0.3189
  5 C      6.1909     6.0000    -0.1909     3.9918     3.6754     0.3163
  6 H      0.8234     1.0000     0.1766     0.9356     0.8971     0.0385
  7 H      0.7927     1.0000     0.2073     0.9300     0.8936     0.0364
  8 C      5.3897     6.0000     0.6103     3.9890     3.7173     0.2717
  9 H      0.8291     1.0000     0.1709     0.9367     0.8974     0.0394
 10 N      7.8544     7.0000    -0.8544     2.9787     2.6420     0.3367
 11 O      8.4793     8.0000    -0.4793     2.2975     1.9040     0.3935
 12 O      8.6466     8.0000    -0.6466     2.1126     1.7567     0.3559
 13 H      0.5521     1.0000     0.4479     0.7888     0.7511     0.0377
 14 H      0.8233     1.0000     0.1767     0.9339     0.8967     0.0372
 15 H      0.5987     1.0000     0.4013     0.8355     0.8012     0.0343
 16 H      0.6497     1.0000     0.3503     0.8468     0.8098     0.0370

  Mayer bond orders larger than 0.100000
B(  0-C ,  1-C ) :   1.2682 B(  0-C ,  2-C ) :   1.4088 B(  0-C ,  9-H ) :   0.8942 
B(  1-C ,  3-C ) :   1.2735 B(  1-C , 10-N ) :   1.0169 B(  2-C ,  4-C ) :   1.3100 
B(  2-C , 14-H ) :   0.9003 B(  3-C ,  5-C ) :   1.2949 B(  3-C ,  8-C ) :   0.9861 
B(  4-C ,  5-C ) :   1.3840 B(  4-C ,  6-H ) :   0.9002 B(  5-C ,  7-H ) :   0.8822 
B(  8-C , 11-O ) :   1.7035 B(  8-C , 12-O ) :   0.9914 B( 10-N , 15-H ) :   0.7317 
B( 10-N , 16-H ) :   0.8021 B( 12-O , 13-H ) :   0.7065 


----------------------------------
MP2 DERIVATIVE INTEGRAL GENERATION
----------------------------------


Input Wavefunction Amplitudes       ... geom_opt.mp2tsaa.tmp
Input Correlated Electron Density   ... geom_opt.pmp2re
Input Energy Weighted Density       ... geom_opt.wmp2.tmp
Input SCF Electron Density          ... geom_opt.scfp

One-Electron Terms    ...
                        ... One-Electron Terms done
Prescreening matrices              ... done

Batch handling in the gradient evaluation:
Memory available                      ...  256.0 MB
Memory per occupied orbital in Q2     ...    4.7 MB
Memory per occupied orbital in Q3     ...    0.0 MB
Total memory requirement per |i>      ...    4.7 MB
Max. Number of orbitals possible      ...     54
Number of orbitals treated per batch  ...     26
Number of batches to be done          ...      1
Batch   0: i=   10 ...    35

---------------------------------------
MP2 TOTAL ENERGY:     -474.734159951 Eh
---------------------------------------

The final MP2 gradient
  0:  -0.00002729   0.00002248   0.00005889
  1:  -0.00007540  -0.00005565  -0.00007362
  2:   0.00002846  -0.00006047  -0.00005385
  3:   0.00009234  -0.00000180   0.00004708
  4:   0.00002582   0.00003678   0.00005362
  5:  -0.00007566  -0.00005148  -0.00005133
  6:  -0.00001531   0.00000543  -0.00001816
  7:   0.00003416   0.00003164   0.00001394
  8:  -0.00006033   0.00005345   0.00001160
  9:   0.00002162   0.00001362  -0.00001201
 10:  -0.00000824   0.00003334   0.00005609
 11:   0.00003730  -0.00002015  -0.00000821
 12:   0.00000529  -0.00002873  -0.00000154
 13:   0.00000983   0.00000306  -0.00000255
 14:  -0.00000348   0.00001300   0.00001403
 15:   0.00000080  -0.00001042  -0.00002330
 16:   0.00001010   0.00001590  -0.00001071

-----------------------------------
NORM OF THE MP2 GRADIENT:  0.000268
-----------------------------------

Maximum memory used throughout the entire MP2-calculation: 221.0 MB

-------------------------   --------------------
FINAL SINGLE POINT ENERGY      -474.734159950742
-------------------------   --------------------

                                *** OPTIMIZATION RUN DONE ***

                            ***************************************
                            *     ORCA property calculations      *
                            ***************************************

                                    ---------------------
                                    Active property flags
                                    ---------------------
   (+) Dipole Moment


------------------------------------------------------------------------------
                       ORCA ELECTRIC PROPERTIES CALCULATION
------------------------------------------------------------------------------

Dipole Moment Calculation                       ... on
Quadrupole Moment Calculation                   ... off
Polarizability Calculation                      ... off
GBWName                                         ... geom_opt.gbw
Electron density                                ... geom_opt.scfp
The origin for moment calculation is the CENTER OF MASS  = ( 0.667449, -0.030881  0.040992)

-------------
DIPOLE MOMENT
-------------
                                X             Y             Z
Electronic contribution:      3.97161      -0.61717      -0.00066
Nuclear contribution   :     -4.52619       0.49248      -0.36779
                        -----------------------------------------
Total Dipole Moment    :     -0.55459      -0.12469      -0.36845
                        -----------------------------------------
Magnitude (a.u.)       :      0.67740
Magnitude (Debye)      :      1.72181



--------------------
Rotational spectrum 
--------------------
 
Rotational constants in cm-1:     0.076044     0.040401     0.026437 
Rotational constants in MHz :  2279.727849  1211.192848   792.550562 

 Dipole components along the rotational axes: 
x,y,z [a.u.] :    -0.555976    -0.115169    -0.369450 
x,y,z [Debye]:    -1.413179    -0.292737    -0.939066 

 

                         *** MP2 UNRELAXED DENSITY ***

------------------------------------------------------------------------------
                       ORCA ELECTRIC PROPERTIES CALCULATION
------------------------------------------------------------------------------

Dipole Moment Calculation                       ... on
Quadrupole Moment Calculation                   ... off
Polarizability Calculation                      ... off
GBWName                                         ... geom_opt.gbw
Electron density                                ... geom_opt.pmp2ur
The origin for moment calculation is the CENTER OF MASS  = ( 0.667449, -0.030881  0.040992)

-------------
DIPOLE MOMENT
-------------
                                X             Y             Z
Electronic contribution:      4.00668      -0.58482       0.00083
Nuclear contribution   :     -4.52619       0.49248      -0.36779
                        -----------------------------------------
Total Dipole Moment    :     -0.51951      -0.09234      -0.36697
                        -----------------------------------------
Magnitude (a.u.)       :      0.64271
Magnitude (Debye)      :      1.63365



--------------------
Rotational spectrum 
--------------------
 
Rotational constants in cm-1:     0.076044     0.040401     0.026437 
Rotational constants in MHz :  2279.727849  1211.192848   792.550562 

 Dipole components along the rotational axes: 
x,y,z [a.u.] :    -0.520027    -0.083780    -0.368287 
x,y,z [Debye]:    -1.321804    -0.212951    -0.936110 

 

                           *** MP2 RELAXED DENSITY ***

------------------------------------------------------------------------------
                       ORCA ELECTRIC PROPERTIES CALCULATION
------------------------------------------------------------------------------

Dipole Moment Calculation                       ... on
Quadrupole Moment Calculation                   ... off
Polarizability Calculation                      ... off
GBWName                                         ... geom_opt.gbw
Electron density                                ... geom_opt.pmp2re
The origin for moment calculation is the CENTER OF MASS  = ( 0.667449, -0.030881  0.040992)

-------------
DIPOLE MOMENT
-------------
                                X             Y             Z
Electronic contribution:      4.21662      -0.43850       0.01837
Nuclear contribution   :     -4.52619       0.49248      -0.36779
                        -----------------------------------------
Total Dipole Moment    :     -0.30957       0.05398      -0.34942
                        -----------------------------------------
Magnitude (a.u.)       :      0.46994
Magnitude (Debye)      :      1.19449



--------------------
Rotational spectrum 
--------------------
 
Rotational constants in cm-1:     0.076044     0.040401     0.026437 
Rotational constants in MHz :  2279.727849  1211.192848   792.550562 

 Dipole components along the rotational axes: 
x,y,z [a.u.] :    -0.306202     0.056938    -0.351910 
x,y,z [Debye]:    -0.778304     0.144725    -0.894485 

 

Timings for individual modules:

Sum of individual times         ...      462.309 sec (=   7.705 min)
GTO integral calculation        ...        6.364 sec (=   0.106 min)   1.4 %
SCF iterations                  ...       90.243 sec (=   1.504 min)  19.5 %
MP2 module                      ...      365.236 sec (=   6.087 min)  79.0 %
Geometry relaxation             ...        0.465 sec (=   0.008 min)   0.1 %
                             ****ORCA TERMINATED NORMALLY****
TOTAL RUN TIME: 0 days 0 hours 7 minutes 46 seconds 840 msec
