
                                 *****************
                                 * O   R   C   A *
                                 *****************

                                            #,                                       
                                            ###                                      
                                            ####                                     
                                            #####                                    
                                            ######                                   
                                           ########,                                 
                                     ,,################,,,,,                         
                               ,,#################################,,                 
                          ,,##########################################,,             
                       ,#########################################, ''#####,          
                    ,#############################################,,   '####,        
                  ,##################################################,,,,####,       
                ,###########''''           ''''###############################       
              ,#####''   ,,,,##########,,,,          '''####'''          '####       
            ,##' ,,,,###########################,,,                        '##       
           ' ,,###''''                  '''############,,,                           
         ,,##''                                '''############,,,,        ,,,,,,###''
      ,#''                                            '''#######################'''  
     '                                                          ''''####''''         
             ,#######,   #######,   ,#######,      ##                                
            ,#'     '#,  ##    ##  ,#'     '#,    #''#        ######   ,####,        
            ##       ##  ##   ,#'  ##            #'  '#       #        #'  '#        
            ##       ##  #######   ##           ,######,      #####,   #    #        
            '#,     ,#'  ##    ##  '#,     ,#' ,#      #,         ##   #,  ,#        
             '#######'   ##     ##  '#######'  #'      '#     #####' # '####'        



                  #######################################################
                  #                        -***-                        #
                  #          Department of theory and spectroscopy      #
                  #    Directorship and core code : Frank Neese         #
                  #        Max Planck Institute fuer Kohlenforschung    #
                  #                Kaiser Wilhelm Platz 1               #
                  #                 D-45470 Muelheim/Ruhr               #
                  #                      Germany                        #
                  #                                                     #
                  #                  All rights reserved                #
                  #                        -***-                        #
                  #######################################################


                         Program Version 5.0.4 -  RELEASE  -


 With contributions from (in alphabetic order):
   Daniel Aravena         : Magnetic Suceptibility
   Michael Atanasov       : Ab Initio Ligand Field Theory (pilot matlab implementation)
   Alexander A. Auer      : GIAO ZORA, VPT2 properties, NMR spectrum
   Ute Becker             : Parallelization
   Giovanni Bistoni       : ED, misc. LED, open-shell LED, HFLD
   Martin Brehm           : Molecular dynamics
   Dmytro Bykov           : SCF Hessian
   Vijay G. Chilkuri      : MRCI spin determinant printing, contributions to CSF-ICE
   Dipayan Datta          : RHF DLPNO-CCSD density
   Achintya Kumar Dutta   : EOM-CC, STEOM-CC
   Dmitry Ganyushin       : Spin-Orbit,Spin-Spin,Magnetic field MRCI
   Miquel Garcia          : C-PCM and meta-GGA Hessian, CC/C-PCM, Gaussian charge scheme
   Yang Guo               : DLPNO-NEVPT2, F12-NEVPT2, CIM, IAO-localization
   Andreas Hansen         : Spin unrestricted coupled pair/coupled cluster methods
   Benjamin Helmich-Paris : MC-RPA, TRAH-SCF, COSX integrals
   Lee Huntington         : MR-EOM, pCC
   Robert Izsak           : Overlap fitted RIJCOSX, COSX-SCS-MP3, EOM
   Marcus Kettner         : VPT2
   Christian Kollmar      : KDIIS, OOCD, Brueckner-CCSD(T), CCSD density, CASPT2, CASPT2-K
   Simone Kossmann        : Meta GGA functionals, TD-DFT gradient, OOMP2, MP2 Hessian
   Martin Krupicka        : Initial AUTO-CI
   Lucas Lang             : DCDCAS
   Marvin Lechner         : AUTO-CI (C++ implementation), FIC-MRCC
   Dagmar Lenk            : GEPOL surface, SMD
   Dimitrios Liakos       : Extrapolation schemes; Compound Job, initial MDCI parallelization
   Dimitrios Manganas     : Further ROCIS development; embedding schemes
   Dimitrios Pantazis     : SARC Basis sets
   Anastasios Papadopoulos: AUTO-CI, single reference methods and gradients
   Taras Petrenko         : DFT Hessian,TD-DFT gradient, ASA, ECA, R-Raman, ABS, FL, XAS/XES, NRVS
   Peter Pinski           : DLPNO-MP2, DLPNO-MP2 Gradient
   Christoph Reimann      : Effective Core Potentials
   Marius Retegan         : Local ZFS, SOC
   Christoph Riplinger    : Optimizer, TS searches, QM/MM, DLPNO-CCSD(T), (RO)-DLPNO pert. Triples
   Tobias Risthaus        : Range-separated hybrids, TD-DFT gradient, RPA, STAB
   Michael Roemelt        : Original ROCIS implementation
   Masaaki Saitow         : Open-shell DLPNO-CCSD energy and density
   Barbara Sandhoefer     : DKH picture change effects
   Avijit Sen             : IP-ROCIS
   Kantharuban Sivalingam : CASSCF convergence, NEVPT2, FIC-MRCI
   Bernardo de Souza      : ESD, SOC TD-DFT
   Georgi Stoychev        : AutoAux, RI-MP2 NMR, DLPNO-MP2 response
   Willem Van den Heuvel  : Paramagnetic NMR
   Boris Wezisla          : Elementary symmetry handling
   Frank Wennmohs         : Technical directorship


 We gratefully acknowledge several colleagues who have allowed us to
 interface, adapt or use parts of their codes:
   Stefan Grimme, W. Hujo, H. Kruse, P. Pracht,  : VdW corrections, initial TS optimization,
                  C. Bannwarth, S. Ehlert          DFT functionals, gCP, sTDA/sTD-DF
   Ed Valeev, F. Pavosevic, A. Kumar             : LibInt (2-el integral package), F12 methods
   Garnet Chan, S. Sharma, J. Yang, R. Olivares  : DMRG
   Ulf Ekstrom                                   : XCFun DFT Library
   Mihaly Kallay                                 : mrcc  (arbitrary order and MRCC methods)
   Jiri Pittner, Ondrej Demel                    : Mk-CCSD
   Frank Weinhold                                : gennbo (NPA and NBO analysis)
   Christopher J. Cramer and Donald G. Truhlar   : smd solvation model
   Lars Goerigk                                  : TD-DFT with DH, B97 family of functionals
   V. Asgeirsson, H. Jonsson                     : NEB implementation
   FAccTs GmbH                                   : IRC, NEB, NEB-TS, DLPNO-Multilevel, CI-OPT
                                                   MM, QMMM, 2- and 3-layer-ONIOM, Crystal-QMMM,
                                                   LR-CPCM, SF, NACMEs, symmetry and pop. for TD-DFT,
                                                   nearIR, NL-DFT gradient (VV10), updates on ESD,
                                                   ML-optimized integration grids
   S Lehtola, MJT Oliveira, MAL Marques          : LibXC Library
   Liviu Ungur et al                             : ANISO software


 Your calculation uses the libint2 library for the computation of 2-el integrals
 For citations please refer to: http://libint.valeyev.net

 Your ORCA version has been built with support for libXC version: 5.1.0
 For citations please refer to: https://tddft.org/programs/libxc/

 This ORCA versions uses:
   CBLAS   interface :  Fast vector & matrix operations
   LAPACKE interface :  Fast linear algebra routines
   SCALAPACK package :  Parallel linear algebra routines
   Shared memory     :  Shared parallel matrices
   BLAS/LAPACK       :  OpenBLAS 0.3.15  USE64BITINT DYNAMIC_ARCH NO_AFFINITY SkylakeX SINGLE_THREADED
        Core in use  :  SkylakeX
   Copyright (c) 2011-2014, The OpenBLAS Project


================================================================================

----- Orbital basis set information -----
Your calculation utilizes the basis: 6-31G(d)
   H-He, Li-Ne : W. J. Hehre, R. Ditchfield and J.A. Pople, J. Chem. Phys. 56, 2257 (1972).
                 Note: He and Ne are unpublished basis sets taken from the Gaussian program.
                 Note: Li and B from J. D. Dill and J. A. Pople, J. Chem. Phys. 62, 2921 (1975).
   Na - Ar     : M. M. Francl, W. J. Pietro, W. J. Hehre, J. S. Binkley, M. S. Gordon, 
                 D. J. DeFrees and J. A. Pople, J. Chem. Phys. 77, 3654 (1982).
   K - Zn      : V. A. Rassolov, J. A. Pople, M. A. Ratner, and T. L. Windus, J. Chem. Phys. 109, 1223 (1998).

================================================================================
                                        WARNINGS
                       Please study these warnings very carefully!
================================================================================

WARNING: Old DensityContainer found on disk!
         Will remove this file - 
         If you want to keep old densities, please start your calculation with a different basename. 


INFO   : the flag for use of the SHARK integral package has been found!

================================================================================
                                       INPUT FILE
================================================================================
NAME = scan_c7_o.in
|  1> ! HF 6-31g(d) PAL4
|  2> 
|  3> %paras  
|  4> B=2,10,81
|  5> end 
|  6> 
|  7> *int 0 1
|  8>  C      0   0   0     0.000000000000     0.00000000     0.00000000
|  9>  C      1   0   0     1.410408792387     0.00000000     0.00000000
| 10>  C      1   2   0     1.387629674561   121.46540976     0.00000000
| 11>  C      2   1   3     1.418429715822   117.86149259   357.95682680
| 12>  C      3   1   2     1.401216550379   120.41314464     1.85928728
| 13>  C      5   3   1     1.387728922094   119.18088952   358.56672225
| 14>  H      5   3   1     1.086448109445   120.54301814   179.88964476
| 15>  H      6   5   3     1.085257810950   120.27815199   180.37435074
| 16>  C      4   2   1     1.474525319058   120.29082617   177.88235003
| 17>  H      1   2   3     1.088916721971   118.52499331   181.18172947
| 18>  N      2   1   3     1.382927159506   119.21307977   183.26061362
| 19>  O      9   4   2     1.231295327431   126.25299933   356.29999903
| 20>  O      9   4   2     1.361745810407   113.26023456   176.60892359
| 21>  H     13   9   4     0.980186199946   104.58659711   179.32147663
| 22>  H      3   1   2     1.088000665320   119.35735619   180.54826763
| 23>  H     11   2   1     1.014297666448   115.28426224   195.45494424
| 24>  H     11   2   1     1.012437828384   115.27373933   333.44819984
| 25>  O      9   4   2     {B}               90.00000000    90.00000000
| 26>  H     18   9   4     0.957200000000   127.74000000     0.00000000 
| 27>  H     18   9   4     0.957200000000   127.74000000   180.00000000  
| 28> *
| 29> 
| 30>                          ****END OF INPUT****
================================================================================

                       ******************************
                       * Parameter Scan Calculation *
                       ******************************

Trajectory settings:
    -> SCF surface will be mapped

There are 1 parameter(s) to be scanned
             B: range=   2.00000000 ..  10.00000000  steps=   81
There will be   81 energy evaluations


         *************************************************************
                                TRAJECTORY STEP   1
                  B  :   2.00000000
         *************************************************************
---------------------------------
CARTESIAN COORDINATES (ANGSTROEM)
---------------------------------
  C      0.000000    0.000000    0.000000
  C      1.410409    0.000000    0.000000
  C     -0.724320    1.183586    0.000000
  C      2.073292    1.253208   -0.044708
  C     -0.064411    2.419058   -0.039207
  C      1.323048    2.445080   -0.047743
  H     -0.629466    3.347001   -0.041088
  H      1.852429    3.392160   -0.071804
  C      3.545723    1.317753    0.000066
  H     -0.520004   -0.956528    0.019731
  N      2.085359   -1.205080   -0.068653
  O      4.312423    0.364488    0.139874
  O      4.032585    2.583306   -0.125203
  H      5.005653    2.480252   -0.067898
  H     -1.811547    1.143588    0.009074
  H      3.068328   -1.165755    0.178380
  H      1.581522   -2.004078    0.295737
  O      3.611059    1.211981   -1.996066
  H      2.874324    1.147862   -2.603800
  H      4.386074    1.214130   -2.557830

----------------------------
CARTESIAN COORDINATES (A.U.)
----------------------------
  NO LB      ZA    FRAG     MASS         X           Y           Z
   0 C     6.0000    0    12.011    0.000000    0.000000    0.000000
   1 C     6.0000    0    12.011    2.665286    0.000000    0.000000
   2 C     6.0000    0    12.011   -1.368767    2.236654    0.000000
   3 C     6.0000    0    12.011    3.917954    2.368220   -0.084487
   4 C     6.0000    0    12.011   -0.121718    4.571357   -0.074090
   5 C     6.0000    0    12.011    2.500199    4.620531   -0.090221
   6 H     1.0000    0     1.008   -1.189519    6.324915   -0.077645
   7 H     1.0000    0     1.008    3.500584    6.410253   -0.135689
   8 C     6.0000    0    12.011    6.700446    2.490192    0.000125
   9 H     1.0000    0     1.008   -0.982664   -1.807577    0.037287
  10 N     7.0000    0    14.007    3.940757   -2.277270   -0.129736
  11 O     8.0000    0    15.999    8.149298    0.688782    0.264323
  12 O     8.0000    0    15.999    7.620482    4.881740   -0.236599
  13 H     1.0000    0     1.008    9.459313    4.686996   -0.128308
  14 H     1.0000    0     1.008   -3.423328    2.161068    0.017147
  15 H     1.0000    0     1.008    5.798299   -2.202959    0.337089
  16 H     1.0000    0     1.008    2.988644   -3.787158    0.558863
  17 O     8.0000    0    15.999    6.823913    2.290312   -3.772018
  18 H     1.0000    0     1.008    5.431684    2.169144   -4.920470
  19 H     1.0000    0     1.008    8.288479    2.294373   -4.833598

--------------------------------
INTERNAL COORDINATES (ANGSTROEM)
--------------------------------
 C      0   0   0     0.000000000000     0.00000000     0.00000000
 C      1   0   0     1.410408792387     0.00000000     0.00000000
 C      1   2   0     1.387629674561   121.46540976     0.00000000
 C      2   1   3     1.418429715822   117.86149259   357.95682680
 C      3   1   2     1.401216550379   120.41314464     1.85928728
 C      5   3   1     1.387728922094   119.18088952   358.56672225
 H      5   3   1     1.086448109445   120.54301814   179.88964476
 H      6   5   3     1.085257810950   120.27815199   180.37435074
 C      4   2   1     1.474525319058   120.29082617   177.88235003
 H      1   2   3     1.088916721971   118.52499331   181.18172947
 N      2   1   3     1.382927159506   119.21307977   183.26061362
 O      9   4   2     1.231295327431   126.25299933   356.29999903
 O      9   4   2     1.361745810407   113.26023456   176.60892359
 H     13   9   4     0.980186199946   104.58659711   179.32147663
 H      3   1   2     1.088000665320   119.35735619   180.54826763
 H     11   2   1     1.014297666448   115.28426224   195.45494424
 H     11   2   1     1.012437828384   115.27373933   333.44819984
 O      9   4   2     2.000000000000    90.00000000    90.00000000
 H     18   9   4     0.957200000000   127.74000000     0.00000000
 H     18   9   4     0.957200000000   127.74000000   180.00000000

---------------------------
INTERNAL COORDINATES (A.U.)
---------------------------
 C      0   0   0     0.000000000000     0.00000000     0.00000000
 C      1   0   0     2.665286354486     0.00000000     0.00000000
 C      1   2   0     2.622240060223   121.46540976     0.00000000
 C      2   1   3     2.680443703119   117.86149259   357.95682680
 C      3   1   2     2.647915534534   120.41314464     1.85928728
 C      5   3   1     2.622427610879   119.18088952   358.56672225
 H      5   3   1     2.053089385568   120.54301814   179.88964476
 H      6   5   3     2.050840047394   120.27815199   180.37435074
 C      4   2   1     2.786449030552   120.29082617   177.88235003
 H      1   2   3     2.057754387172   118.52499331   181.18172947
 N      2   1   3     2.613353594628   119.21307977   183.26061362
 O      9   4   2     2.326810958821   126.25299933   356.29999903
 O      9   4   2     2.573326645684   113.26023456   176.60892359
 H     13   9   4     1.852283478147   104.58659711   179.32147663
 H      3   1   2     2.056023290979   119.35735619   180.54826763
 H     11   2   1     1.916744807862   115.28426224   195.45494424
 H     11   2   1     1.913230223268   115.27373933   333.44819984
 O      9   4   2     3.779452267843    90.00000000    90.00000000
 H     18   9   4     1.808845855389   127.74000000     0.00000000
 H     18   9   4     1.808845855389   127.74000000   180.00000000

---------------------
BASIS SET INFORMATION
---------------------
There are 4 groups of distinct atoms

 Group   1 Type C   : 10s4p1d contracted to 3s2p1d pattern {631/31/1}
 Group   2 Type H   : 4s contracted to 2s pattern {31}
 Group   3 Type N   : 10s4p1d contracted to 3s2p1d pattern {631/31/1}
 Group   4 Type O   : 10s4p1d contracted to 3s2p1d pattern {631/31/1}

Atom   0C    basis set group =>   1
Atom   1C    basis set group =>   1
Atom   2C    basis set group =>   1
Atom   3C    basis set group =>   1
Atom   4C    basis set group =>   1
Atom   5C    basis set group =>   1
Atom   6H    basis set group =>   2
Atom   7H    basis set group =>   2
Atom   8C    basis set group =>   1
Atom   9H    basis set group =>   2
Atom  10N    basis set group =>   3
Atom  11O    basis set group =>   4
Atom  12O    basis set group =>   4
Atom  13H    basis set group =>   2
Atom  14H    basis set group =>   2
Atom  15H    basis set group =>   2
Atom  16H    basis set group =>   2
Atom  17O    basis set group =>   4
Atom  18H    basis set group =>   2
Atom  19H    basis set group =>   2

Checking for AutoStart:
The File: scan_c7_o.gbw exists
Trying to determine its content:
     ... Fine, the file contains calculation information
     ... Fine, the calculation information was read
     ... Fine, the file contains a basis set
     ... Fine, the basis set was read
     ... Fine, the file contains a geometry
     ... Fine, the geometry was read
     ... Fine, the file contains a set of orbitals
     ... Fine, the orbitals can be read
     => possible old guess file was deleted
     => GBW file was renamed to GES file
     => GES file is set as startup file
     => Guess is set to MORead
     ... now leaving AutoStart



           ************************************************************
           *        Program running with 4 parallel MPI-processes     *
           *              working on a common directory               *
           ************************************************************
------------------------------------------------------------------------------
                           ORCA GTO INTEGRAL CALCULATION
------------------------------------------------------------------------------
------------------------------------------------------------------------------
                   ___                                                        
                  /   \      - P O W E R E D   B Y -                         
                 /     \                                                     
                 |  |  |   _    _      __       _____    __    __             
                 |  |  |  | |  | |    /  \     |  _  \  |  |  /  |          
                  \  \/   | |  | |   /    \    | | | |  |  | /  /          
                 / \  \   | |__| |  /  /\  \   | |_| |  |  |/  /          
                |  |  |   |  __  | /  /__\  \  |    /   |      \           
                |  |  |   | |  | | |   __   |  |    \   |  |\   \          
                \     /   | |  | | |  |  |  |  | |\  \  |  | \   \       
                 \___/    |_|  |_| |__|  |__|  |_| \__\ |__|  \__/        
                                                                              
                      - O R C A' S   B I G   F R I E N D -                    
                                      &                                       
                       - I N T E G R A L  F E E D E R -                       
                                                                              
 v1 FN, 2020, v2 2021                                                         
------------------------------------------------------------------------------


Reading SHARK input file scan_c7_o.SHARKINP.tmp ... ok
----------------------
SHARK INTEGRAL PACKAGE
----------------------

Number of atoms                             ...     20
Number of basis functions                   ...    172
Number of shells                            ...     84
Maximum angular momentum                    ...      2
Integral batch strategy                     ... SHARK/LIBINT Hybrid
RI-J (if used) integral strategy            ... SPLIT-RIJ (Revised 2003 algorithm where possible)
Printlevel                                  ...      1
Contraction scheme used                     ... SEGMENTED contraction
Coulomb Range Separation                    ... NOT USED
Exchange Range Separation                   ... NOT USED
Finite Nucleus Model                        ... NOT USED
Auxiliary Coulomb fitting basis             ... NOT available
Auxiliary J/K fitting basis                 ... NOT available
Auxiliary Correlation fitting basis         ... NOT available
Auxiliary 'external' fitting basis          ... NOT available
Integral threshold                          ...     1.000000e-10
Primitive cut-off                           ...     1.000000e-11
Primitive pair pre-selection threshold      ...     1.000000e-11

Calculating pre-screening integrals         ... done (  0.0 sec) Dimension = 84
Organizing shell pair data                  ... done (  0.0 sec)
Shell pair information
Total number of shell pairs                 ...      3570
Shell pairs after pre-screening             ...      3251
Total number of primitive shell pairs       ...     20559
Primitive shell pairs kept                  ...     11642
          la=0 lb=0:   1155 shell pairs
          la=1 lb=0:   1058 shell pairs
          la=1 lb=1:    248 shell pairs
          la=2 lb=0:    492 shell pairs
          la=2 lb=1:    237 shell pairs
          la=2 lb=2:     61 shell pairs

Calculating one electron integrals          ... done (  0.0 sec)
Calculating Nuclear repulsion               ... done (  0.0 sec) ENN=    630.576596659327 Eh

SHARK setup successfully completed in   0.1 seconds

Maximum memory used throughout the entire GTOINT-calculation: 11.1 MB


           ************************************************************
           *        Program running with 4 parallel MPI-processes     *
           *              working on a common directory               *
           ************************************************************
-------------------------------------------------------------------------------
                                 ORCA SCF
-------------------------------------------------------------------------------

------------
SCF SETTINGS
------------
Hamiltonian:
 Ab initio Hamiltonian  Method          .... Hartree-Fock(GTOs)


General Settings:
 Integral files         IntName         .... scan_c7_o
 Hartree-Fock type      HFTyp           .... RHF
 Total Charge           Charge          ....    0
 Multiplicity           Mult            ....    1
 Number of Electrons    NEL             ....   82
 Basis Dimension        Dim             ....  172
 Nuclear Repulsion      ENuc            ....    630.5765966593 Eh

Convergence Acceleration:
 DIIS                   CNVDIIS         .... on
   Start iteration      DIISMaxIt       ....    12
   Startup error        DIISStart       ....  0.200000
   # of expansion vecs  DIISMaxEq       ....     5
   Bias factor          DIISBfac        ....   1.050
   Max. coefficient     DIISMaxC        ....  10.000
 Trust-Rad. Augm. Hess. CNVTRAH         .... auto
   Auto Start mean grad. ratio tolernc. ....  1.125000
   Auto Start start iteration           ....     1
   Auto Start num. interpolation iter.  ....    10
   Max. Number of Micro iterations      ....    16
   Max. Number of Macro iterations      .... Maxiter - #DIIS iter
   Number of Davidson start vectors     ....     2
   Converg. threshold I  (grad. norm)   ....   5.000e-05
   Converg. threshold II (energy diff.) ....   1.000e-06
   Grad. Scal. Fac. for Micro threshold ....   0.100
   Minimum threshold for Micro iter.    ....   0.010
   NR start threshold (gradient norm)   ....   0.001
   Initial trust radius                 ....   0.400
   Minimum AH scaling param. (alpha)    ....   1.000
   Maximum AH scaling param. (alpha)    .... 1000.000
   Orbital update algorithm             .... Taylor
   White noise on init. David. guess    .... on
   Maximum white noise                  ....   0.010
   Quad. conv. algorithm                .... NR
 SOSCF                  CNVSOSCF        .... on
   Start iteration      SOSCFMaxIt      ....   150
   Startup grad/error   SOSCFStart      ....  0.003300
 Level Shifting         CNVShift        .... on
   Level shift para.    LevelShift      ....    0.2500
   Turn off err/grad.   ShiftErr        ....    0.0010
 Zerner damping         CNVZerner       .... off
 Static damping         CNVDamp         .... on
   Fraction old density DampFac         ....    0.7000
   Max. Damping (<1)    DampMax         ....    0.9800
   Min. Damping (>=0)   DampMin         ....    0.0000
   Turn off err/grad.   DampErr         ....    0.1000
 Fernandez-Rico         CNVRico         .... off

SCF Procedure:
 Maximum # iterations   MaxIter         ....   125
 SCF integral mode      SCFMode         .... Direct
   Integral package                     .... SHARK and LIBINT hybrid scheme
 Reset frequency        DirectResetFreq ....    20
 Integral Threshold     Thresh          ....  1.000e-10 Eh
 Primitive CutOff       TCut            ....  1.000e-11 Eh

Convergence Tolerance:
 Convergence Check Mode ConvCheckMode   .... Total+1el-Energy
 Convergence forced     ConvForced      .... 0
 Energy Change          TolE            ....  1.000e-06 Eh
 1-El. energy change                    ....  1.000e-03 Eh
 Orbital Gradient       TolG            ....  5.000e-05
 Orbital Rotation angle TolX            ....  5.000e-05
 DIIS Error             TolErr          ....  1.000e-06


Diagonalization of the overlap matrix:
Smallest eigenvalue                        ... 4.112e-04
Time for diagonalization                   ...    0.006 sec
Threshold for overlap eigenvalues          ... 1.000e-08
Number of eigenvalues below threshold      ... 0
Time for construction of square roots      ...    0.002 sec
Total time needed                          ...    0.009 sec

---------------------
INITIAL GUESS: MOREAD
---------------------
Guess MOs are being read from file: scan_c7_o.ges
Input geometry compatible with but different from current geometry
Input basis set matches current basis set (good)
MOs were renormalized
MOs were reorthogonalized (Cholesky)
                      ------------------
                      INITIAL GUESS DONE (   0.0 sec)
                      ------------------
--------------
SCF ITERATIONS
--------------
ITER       Energy         Delta-E        Max-DP      RMS-DP      [F,P]     Damp
               ***  Starting incremental Fock matrix formation  ***
  0   -548.6992462756   0.000000000000 0.11393423  0.00179552  0.4021084 0.7000
  1   -548.8430187596  -0.143772484055 0.09908577  0.00156890  0.3436551 0.7000
  2   -548.9570596201  -0.114040860458 0.07738478  0.00122983  0.2791442 0.7000
  3   -549.0458681257  -0.088808505569 0.05923702  0.00096019  0.2240655 0.7000
                               ***Turning on DIIS***
  4   -549.1144275205  -0.068559394810 0.04604649  0.00075631  0.1798766 0.7000
  5   -549.3324355000  -0.218007979480 0.03997490  0.00068450  0.1449013 0.7000
  6   -549.3818886889  -0.049453188972 0.03413072  0.00060674  0.1135147 0.7000
  7   -549.3695274084   0.012361280565 0.09400790  0.00164648  0.0851617 0.0000
  8   -549.3261745752   0.043352833176 0.01206172  0.00019486  0.0111778 0.0000
  9   -549.3236982484   0.002476326782 0.00575148  0.00010910  0.0043485 0.0000
                      *** Initiating the SOSCF procedure ***
                           *** Shutting down DIIS ***
                      *** Re-Reading the Fockian *** 
                      *** Removing any level shift *** 
ITER      Energy       Delta-E        Grad      Rot      Max-DP    RMS-DP
 10   -549.31861051   0.0050877385  0.001083  0.001083  0.002914  0.000045
               *** Restarting incremental Fock matrix formation ***
 11   -549.31703173   0.0015787762  0.000246  0.000344  0.000918  0.000015
 12   -549.31703285  -0.0000011144  0.000094  0.000241  0.000660  0.000010
 13   -549.31703307  -0.0000002250  0.000034  0.000026  0.000122  0.000002
                 **** Energy Check signals convergence ****
              ***Rediagonalizing the Fockian in SOSCF/NRSCF***

               *****************************************************
               *                     SUCCESS                       *
               *           SCF CONVERGED AFTER  14 CYCLES          *
               *****************************************************


----------------
TOTAL SCF ENERGY
----------------

Total Energy       :         -549.31703309 Eh          -14947.67640 eV

Components:
Nuclear Repulsion  :          630.57659666 Eh           17158.86153 eV
Electronic Energy  :        -1179.89362975 Eh          -32106.53793 eV
One Electron Energy:        -2003.92993900 Eh          -54529.70588 eV
Two Electron Energy:          824.03630925 Eh           22423.16795 eV

Virial components:
Potential Energy   :        -1098.21229138 Eh          -29883.87572 eV
Kinetic Energy     :          548.89525829 Eh           14936.19932 eV
Virial Ratio       :            2.00076841


---------------
SCF CONVERGENCE
---------------

  Last Energy change         ...   -1.7229e-08  Tolerance :   1.0000e-06
  Last MAX-Density change    ...    2.9320e-05  Tolerance :   1.0000e-05
  Last RMS-Density change    ...    5.4228e-07  Tolerance :   1.0000e-06
  Last Orbital Gradient      ...    8.4704e-06  Tolerance :   5.0000e-05
  Last Orbital Rotation      ...    1.1638e-05  Tolerance :   5.0000e-05

             **** THE GBW FILE WAS UPDATED (scan_c7_o.gbw) ****
             **** DENSITY scan_c7_o.scfp WAS UPDATED ****
             **** ENERGY FILE WAS UPDATED (scan_c7_o.en.tmp) ****
             **** THE GBW FILE WAS UPDATED (scan_c7_o.gbw) ****
             **** DENSITY scan_c7_o.scfp WAS UPDATED ****
----------------
ORBITAL ENERGIES
----------------

  NO   OCC          E(Eh)            E(eV) 
   0   2.0000     -20.583161      -560.0963 
   1   2.0000     -20.563811      -559.5697 
   2   2.0000     -20.511627      -558.1498 
   3   2.0000     -15.548493      -423.0960 
   4   2.0000     -11.378293      -309.6191 
   5   2.0000     -11.286441      -307.1197 
   6   2.0000     -11.241714      -305.9026 
   7   2.0000     -11.238023      -305.8021 
   8   2.0000     -11.226662      -305.4930 
   9   2.0000     -11.221584      -305.3548 
  10   2.0000     -11.216960      -305.2290 
  11   2.0000      -1.435627       -39.0654 
  12   2.0000      -1.360112       -37.0105 
  13   2.0000      -1.319543       -35.9066 
  14   2.0000      -1.215369       -33.0719 
  15   2.0000      -1.124090       -30.5880 
  16   2.0000      -1.028559       -27.9885 
  17   2.0000      -0.985225       -26.8093 
  18   2.0000      -0.875667       -23.8281 
  19   2.0000      -0.822594       -22.3839 
  20   2.0000      -0.782369       -21.2893 
  21   2.0000      -0.727495       -19.7962 
  22   2.0000      -0.701025       -19.0759 
  23   2.0000      -0.683489       -18.5987 
  24   2.0000      -0.675798       -18.3894 
  25   2.0000      -0.669254       -18.2113 
  26   2.0000      -0.662814       -18.0361 
  27   2.0000      -0.616431       -16.7739 
  28   2.0000      -0.594028       -16.1643 
  29   2.0000      -0.580494       -15.7960 
  30   2.0000      -0.556240       -15.1361 
  31   2.0000      -0.539854       -14.6902 
  32   2.0000      -0.529703       -14.4139 
  33   2.0000      -0.512278       -13.9398 
  34   2.0000      -0.505937       -13.7672 
  35   2.0000      -0.494386       -13.4529 
  36   2.0000      -0.438620       -11.9355 
  37   2.0000      -0.435735       -11.8570 
  38   2.0000      -0.416331       -11.3289 
  39   2.0000      -0.336592        -9.1591 
  40   2.0000      -0.286110        -7.7854 
  41   0.0000       0.117099         3.1864 
  42   0.0000       0.162817         4.4305 
  43   0.0000       0.210664         5.7325 
  44   0.0000       0.242684         6.6038 
  45   0.0000       0.253937         6.9100 
  46   0.0000       0.257737         7.0134 
  47   0.0000       0.269578         7.3356 
  48   0.0000       0.299892         8.1605 
  49   0.0000       0.305330         8.3084 
  50   0.0000       0.330758         9.0004 
  51   0.0000       0.345562         9.4032 
  52   0.0000       0.362085         9.8528 
  53   0.0000       0.398536        10.8447 
  54   0.0000       0.450491        12.2585 
  55   0.0000       0.460189        12.5224 
  56   0.0000       0.468849        12.7580 
  57   0.0000       0.522134        14.2080 
  58   0.0000       0.537762        14.6332 
  59   0.0000       0.572330        15.5739 
  60   0.0000       0.592060        16.1108 
  61   0.0000       0.613248        16.6873 
  62   0.0000       0.718392        19.5484 
  63   0.0000       0.725069        19.7301 
  64   0.0000       0.759631        20.6706 
  65   0.0000       0.769987        20.9524 
  66   0.0000       0.785858        21.3843 
  67   0.0000       0.803501        21.8644 
  68   0.0000       0.820432        22.3251 
  69   0.0000       0.828035        22.5320 
  70   0.0000       0.835270        22.7288 
  71   0.0000       0.845451        23.0059 
  72   0.0000       0.856656        23.3108 
  73   0.0000       0.865725        23.5576 
  74   0.0000       0.906835        24.6762 
  75   0.0000       0.928624        25.2691 
  76   0.0000       0.943018        25.6608 
  77   0.0000       0.962264        26.1845 
  78   0.0000       0.970026        26.3958 
  79   0.0000       1.016112        27.6498 
  80   0.0000       1.037397        28.2290 
  81   0.0000       1.059760        28.8375 
  82   0.0000       1.084298        29.5053 
  83   0.0000       1.100382        29.9429 
  84   0.0000       1.110930        30.2299 
  85   0.0000       1.119876        30.4734 
  86   0.0000       1.130725        30.7686 
  87   0.0000       1.154905        31.4266 
  88   0.0000       1.166173        31.7332 
  89   0.0000       1.171832        31.8872 
  90   0.0000       1.188542        32.3419 
  91   0.0000       1.197100        32.5747 
  92   0.0000       1.218797        33.1652 
  93   0.0000       1.230619        33.4868 
  94   0.0000       1.240730        33.7620 
  95   0.0000       1.280111        34.8336 
  96   0.0000       1.301006        35.4022 
  97   0.0000       1.305954        35.5368 
  98   0.0000       1.325115        36.0582 
  99   0.0000       1.348581        36.6967 
 100   0.0000       1.356102        36.9014 
 101   0.0000       1.372433        37.3458 
 102   0.0000       1.399566        38.0841 
 103   0.0000       1.440413        39.1956 
 104   0.0000       1.458725        39.6939 
 105   0.0000       1.480518        40.2870 
 106   0.0000       1.510874        41.1130 
 107   0.0000       1.550121        42.1809 
 108   0.0000       1.570255        42.7288 
 109   0.0000       1.602839        43.6155 
 110   0.0000       1.615337        43.9556 
 111   0.0000       1.637272        44.5524 
 112   0.0000       1.675007        45.5792 
 113   0.0000       1.693459        46.0814 
 114   0.0000       1.722533        46.8725 
 115   0.0000       1.733166        47.1618 
 116   0.0000       1.766755        48.0759 
 117   0.0000       1.778108        48.3848 
 118   0.0000       1.779710        48.4284 
 119   0.0000       1.812953        49.3330 
 120   0.0000       1.879387        51.1407 
 121   0.0000       1.960042        53.3354 
 122   0.0000       2.003098        54.5071 
 123   0.0000       2.013194        54.7818 
 124   0.0000       2.069259        56.3074 
 125   0.0000       2.077319        56.5267 
 126   0.0000       2.096090        57.0375 
 127   0.0000       2.108375        57.3718 
 128   0.0000       2.147061        58.4245 
 129   0.0000       2.156645        58.6853 
 130   0.0000       2.194356        59.7115 
 131   0.0000       2.202228        59.9257 
 132   0.0000       2.226997        60.5997 
 133   0.0000       2.249280        61.2060 
 134   0.0000       2.267272        61.6956 
 135   0.0000       2.289398        62.2977 
 136   0.0000       2.302730        62.6605 
 137   0.0000       2.354400        64.0665 
 138   0.0000       2.360537        64.2335 
 139   0.0000       2.400184        65.3123 
 140   0.0000       2.448043        66.6146 
 141   0.0000       2.465185        67.0811 
 142   0.0000       2.484096        67.5957 
 143   0.0000       2.532397        68.9100 
 144   0.0000       2.542295        69.1794 
 145   0.0000       2.571550        69.9754 
 146   0.0000       2.599479        70.7354 
 147   0.0000       2.618470        71.2522 
 148   0.0000       2.630876        71.5898 
 149   0.0000       2.693754        73.3008 
 150   0.0000       2.721173        74.0469 
 151   0.0000       2.755426        74.9790 
 152   0.0000       2.781308        75.6832 
 153   0.0000       2.821113        76.7664 
 154   0.0000       2.860999        77.8517 
 155   0.0000       2.933503        79.8247 
 156   0.0000       2.942951        80.0818 
 157   0.0000       2.974721        80.9463 
 158   0.0000       2.997929        81.5778 
 159   0.0000       3.013107        81.9908 
 160   0.0000       3.043795        82.8259 
 161   0.0000       3.054322        83.1123 
 162   0.0000       3.088059        84.0304 
 163   0.0000       3.130315        85.1802 
 164   0.0000       3.204758        87.2059 
 165   0.0000       3.221680        87.6664 
 166   0.0000       3.250202        88.4425 
 167   0.0000       3.320517        90.3559 
 168   0.0000       3.425860        93.2224 
 169   0.0000       3.476010        94.5871 
 170   0.0000       3.619965        98.5043 
 171   0.0000       3.822873       104.0257 

                    ********************************
                    * MULLIKEN POPULATION ANALYSIS *
                    ********************************

-----------------------
MULLIKEN ATOMIC CHARGES
-----------------------
   0 C :   -0.272754
   1 C :    0.370789
   2 C :   -0.163023
   3 C :   -0.203584
   4 C :   -0.255945
   5 C :   -0.157451
   6 H :    0.198575
   7 H :    0.247711
   8 C :    0.985362
   9 H :    0.195329
  10 N :   -0.965285
  11 O :   -0.695341
  12 O :   -0.783800
  13 H :    0.464358
  14 H :    0.207511
  15 H :    0.443098
  16 H :    0.363902
  17 O :   -0.902720
  18 H :    0.465281
  19 H :    0.457990
Sum of atomic charges:    0.0000000

--------------------------------
MULLIKEN REDUCED ORBITAL CHARGES
--------------------------------
  0 C s       :     3.150997  s :     3.150997
      pz      :     1.111581  p :     3.078516
      px      :     0.911098
      py      :     1.055837
      dz2     :     0.004518  d :     0.043241
      dxz     :     0.004565
      dyz     :     0.003725
      dx2y2   :     0.015621
      dxy     :     0.014812
  1 C s       :     3.048767  s :     3.048767
      pz      :     0.821326  p :     2.507096
      px      :     0.899473
      py      :     0.786297
      dz2     :     0.005431  d :     0.073348
      dxz     :     0.010060
      dyz     :     0.015821
      dx2y2   :     0.020719
      dxy     :     0.021317
  2 C s       :     3.178790  s :     3.178790
      pz      :     0.914050  p :     2.935606
      px      :     1.087654
      py      :     0.933902
      dz2     :     0.004708  d :     0.048627
      dxz     :     0.002924
      dyz     :     0.009487
      dx2y2   :     0.018114
      dxy     :     0.013393
  3 C s       :     3.132437  s :     3.132437
      pz      :     1.165773  p :     3.026653
      px      :     0.915242
      py      :     0.945639
      dz2     :     0.004477  d :     0.044494
      dxz     :     0.002807
      dyz     :     0.005919
      dx2y2   :     0.017777
      dxy     :     0.013514
  4 C s       :     3.165133  s :     3.165133
      pz      :     1.086930  p :     3.046115
      px      :     0.946327
      py      :     1.012858
      dz2     :     0.004522  d :     0.044697
      dxz     :     0.005151
      dyz     :     0.003525
      dx2y2   :     0.014612
      dxy     :     0.016887
  5 C s       :     3.167370  s :     3.167370
      pz      :     0.900956  p :     2.941864
      px      :     0.960698
      py      :     1.080210
      dz2     :     0.004683  d :     0.048217
      dxz     :     0.008281
      dyz     :     0.004369
      dx2y2   :     0.013714
      dxy     :     0.017171
  6 H s       :     0.801425  s :     0.801425
  7 H s       :     0.752289  s :     0.752289
  8 C s       :     2.861747  s :     2.861747
      pz      :     0.560731  p :     2.008640
      px      :     0.867192
      py      :     0.580717
      dz2     :     0.013358  d :     0.144251
      dxz     :     0.014583
      dyz     :     0.025424
      dx2y2   :     0.054885
      dxy     :     0.036001
  9 H s       :     0.804671  s :     0.804671
 10 N s       :     3.678848  s :     3.678848
      pz      :     1.774068  p :     4.249775
      px      :     1.298385
      py      :     1.177322
      dz2     :     0.002598  d :     0.036663
      dxz     :     0.005875
      dyz     :     0.006508
      dx2y2   :     0.010942
      dxy     :     0.010739
 11 O s       :     3.902186  s :     3.902186
      pz      :     1.584382  p :     4.763487
      px      :     1.647654
      py      :     1.531451
      dz2     :     0.003030  d :     0.029668
      dxz     :     0.004437
      dyz     :     0.006385
      dx2y2   :     0.006125
      dxy     :     0.009690
 12 O s       :     3.914090  s :     3.914090
      pz      :     1.879575  p :     4.837829
      px      :     1.418301
      py      :     1.539954
      dz2     :     0.005493  d :     0.031881
      dxz     :     0.000585
      dyz     :     0.004159
      dx2y2   :     0.016460
      dxy     :     0.005184
 13 H s       :     0.535642  s :     0.535642
 14 H s       :     0.792489  s :     0.792489
 15 H s       :     0.556902  s :     0.556902
 16 H s       :     0.636098  s :     0.636098
 17 O s       :     3.877450  s :     3.877450
      pz      :     1.629468  p :     4.995345
      px      :     1.368930
      py      :     1.996948
      dz2     :     0.002776  d :     0.029925
      dxz     :     0.021056
      dyz     :     0.002482
      dx2y2   :     0.003491
      dxy     :     0.000120
 18 H s       :     0.534719  s :     0.534719
 19 H s       :     0.542010  s :     0.542010


                     *******************************
                     * LOEWDIN POPULATION ANALYSIS *
                     *******************************

----------------------
LOEWDIN ATOMIC CHARGES
----------------------
   0 C :   -0.199918
   1 C :    0.100540
   2 C :   -0.088880
   3 C :   -0.134155
   4 C :   -0.200271
   5 C :   -0.079503
   6 H :    0.135586
   7 H :    0.157517
   8 C :    0.277971
   9 H :    0.133541
  10 N :   -0.452300
  11 O :   -0.392552
  12 O :   -0.376689
  13 H :    0.347058
  14 H :    0.140235
  15 H :    0.282576
  16 H :    0.251788
  17 O :   -0.567034
  18 H :    0.334219
  19 H :    0.330271

-------------------------------
LOEWDIN REDUCED ORBITAL CHARGES
-------------------------------
  0 C s       :     2.906636  s :     2.906636
      pz      :     1.091329  p :     3.205174
      px      :     1.038548
      py      :     1.075296
      dz2     :     0.007094  d :     0.088109
      dxz     :     0.008600
      dyz     :     0.005817
      dx2y2   :     0.034225
      dxy     :     0.032373
  1 C s       :     2.849768  s :     2.849768
      pz      :     0.843645  p :     2.894207
      px      :     1.050108
      py      :     1.000454
      dz2     :     0.009587  d :     0.155484
      dxz     :     0.019733
      dyz     :     0.031999
      dx2y2   :     0.046865
      dxy     :     0.047300
  2 C s       :     2.916451  s :     2.916451
      pz      :     0.913747  p :     3.075423
      px      :     1.084368
      py      :     1.077308
      dz2     :     0.007067  d :     0.097006
      dxz     :     0.004091
      dyz     :     0.019055
      dx2y2   :     0.037564
      dxy     :     0.029229
  3 C s       :     2.866151  s :     2.866151
      pz      :     1.115058  p :     3.168764
      px      :     1.007427
      py      :     1.046279
      dz2     :     0.008083  d :     0.099241
      dxz     :     0.005161
      dyz     :     0.011330
      dx2y2   :     0.041851
      dxy     :     0.032816
  4 C s       :     2.906082  s :     2.906082
      pz      :     1.070672  p :     3.202599
      px      :     1.064645
      py      :     1.067281
      dz2     :     0.007099  d :     0.091590
      dxz     :     0.009729
      dyz     :     0.005881
      dx2y2   :     0.032203
      dxy     :     0.036678
  5 C s       :     2.913975  s :     2.913975
      pz      :     0.906938  p :     3.068800
      px      :     1.077039
      py      :     1.084823
      dz2     :     0.007010  d :     0.096728
      dxz     :     0.016052
      dyz     :     0.007932
      dx2y2   :     0.029864
      dxy     :     0.035870
  6 H s       :     0.864414  s :     0.864414
  7 H s       :     0.842483  s :     0.842483
  8 C s       :     2.843006  s :     2.843006
      pz      :     0.639386  p :     2.566350
      px      :     1.021327
      py      :     0.905637
      dz2     :     0.032343  d :     0.312672
      dxz     :     0.027412
      dyz     :     0.050834
      dx2y2   :     0.122553
      dxy     :     0.079531
  9 H s       :     0.866459  s :     0.866459
 10 N s       :     3.195803  s :     3.195803
      pz      :     1.743111  p :     4.193158
      px      :     1.253533
      py      :     1.196515
      dz2     :     0.003533  d :     0.063340
      dxz     :     0.007330
      dyz     :     0.010040
      dx2y2   :     0.021341
      dxy     :     0.021095
 11 O s       :     3.556010  s :     3.556010
      pz      :     1.557461  p :     4.784684
      px      :     1.658195
      py      :     1.569028
      dz2     :     0.007082  d :     0.051858
      dxz     :     0.004869
      dyz     :     0.007214
      dx2y2   :     0.011300
      dxy     :     0.021393
 12 O s       :     3.533677  s :     3.533677
      pz      :     1.850553  p :     4.791754
      px      :     1.387496
      py      :     1.553704
      dz2     :     0.008233  d :     0.051259
      dxz     :     0.001148
      dyz     :     0.005452
      dx2y2   :     0.025888
      dxy     :     0.010537
 13 H s       :     0.652942  s :     0.652942
 14 H s       :     0.859765  s :     0.859765
 15 H s       :     0.717424  s :     0.717424
 16 H s       :     0.748212  s :     0.748212
 17 O s       :     3.605194  s :     3.605194
      pz      :     1.582425  p :     4.920732
      px      :     1.350273
      py      :     1.988034
      dz2     :     0.005064  d :     0.041108
      dxz     :     0.027740
      dyz     :     0.003342
      dx2y2   :     0.004735
      dxy     :     0.000227
 18 H s       :     0.665781  s :     0.665781
 19 H s       :     0.669729  s :     0.669729


                      *****************************
                      * MAYER POPULATION ANALYSIS *
                      *****************************

  NA   - Mulliken gross atomic population
  ZA   - Total nuclear charge
  QA   - Mulliken gross atomic charge
  VA   - Mayer's total valence
  BVA  - Mayer's bonded valence
  FA   - Mayer's free valence

  ATOM       NA         ZA         QA         VA         BVA        FA
  0 C      6.2728     6.0000    -0.2728     3.8657     3.8657    -0.0000
  1 C      5.6292     6.0000     0.3708     3.8179     3.8179     0.0000
  2 C      6.1630     6.0000    -0.1630     3.9093     3.9093     0.0000
  3 C      6.2036     6.0000    -0.2036     3.8809     3.8809    -0.0000
  4 C      6.2559     6.0000    -0.2559     3.8746     3.8746    -0.0000
  5 C      6.1575     6.0000    -0.1575     3.8730     3.8730    -0.0000
  6 H      0.8014     1.0000     0.1986     0.9298     0.9298     0.0000
  7 H      0.7523     1.0000     0.2477     0.9137     0.9137    -0.0000
  8 C      5.0146     6.0000     0.9854     3.6299     3.6299     0.0000
  9 H      0.8047     1.0000     0.1953     0.9294     0.9294    -0.0000
 10 N      7.9653     7.0000    -0.9653     2.6511     2.6511    -0.0000
 11 O      8.6953     8.0000    -0.6953     1.7822     1.7822     0.0000
 12 O      8.7838     8.0000    -0.7838     1.6639     1.6639    -0.0000
 13 H      0.5356     1.0000     0.4644     0.7733     0.7733    -0.0000
 14 H      0.7925     1.0000     0.2075     0.9246     0.9246     0.0000
 15 H      0.5569     1.0000     0.4431     0.7986     0.7986     0.0000
 16 H      0.6361     1.0000     0.3639     0.8361     0.8361     0.0000
 17 O      8.9027     8.0000    -0.9027     1.5016     1.5016     0.0000
 18 H      0.5347     1.0000     0.4653     0.7558     0.7558     0.0000
 19 H      0.5420     1.0000     0.4580     0.7638     0.7638     0.0000

  Mayer bond orders larger than 0.100000
B(  0-C ,  1-C ) :   1.3492 B(  0-C ,  2-C ) :   1.5006 B(  0-C ,  9-H ) :   0.9400 
B(  1-C ,  3-C ) :   1.3721 B(  1-C , 10-N ) :   1.0217 B(  2-C ,  4-C ) :   1.3951 
B(  2-C , 14-H ) :   0.9402 B(  3-C ,  5-C ) :   1.3950 B(  3-C ,  8-C ) :   1.0420 
B(  4-C ,  5-C ) :   1.4741 B(  4-C ,  6-H ) :   0.9433 B(  5-C ,  7-H ) :   0.9162 
B(  8-C , 11-O ) :   1.6558 B(  8-C , 12-O ) :   0.9161 B( 10-N , 15-H ) :   0.7438 
B( 10-N , 16-H ) :   0.8337 B( 12-O , 13-H ) :   0.7395 B( 17-O , 18-H ) :   0.7538 
B( 17-O , 19-H ) :   0.7583 

-------
TIMINGS
-------

Total SCF time: 0 days 0 hours 0 min 16 sec 

Total time                  ....      16.913 sec
Sum of individual times     ....      16.641 sec  ( 98.4%)

Fock matrix formation       ....      16.524 sec  ( 97.7%)
Diagonalization             ....       0.046 sec  (  0.3%)
Density matrix formation    ....       0.003 sec  (  0.0%)
Population analysis         ....       0.012 sec  (  0.1%)
Initial guess               ....       0.009 sec  (  0.1%)
Orbital Transformation      ....       0.000 sec  (  0.0%)
Orbital Orthonormalization  ....       0.004 sec  (  0.0%)
DIIS solution               ....       0.031 sec  (  0.2%)
SOSCF solution              ....       0.016 sec  (  0.1%)

Maximum memory used throughout the entire SCF-calculation: 228.9 MB

-------------------------   --------------------
FINAL SINGLE POINT ENERGY      -549.317033090285
-------------------------   --------------------

Storing actual gbw-file in scan_c7_o.001.gbw ... done

                            ***************************************
                            *     ORCA property calculations      *
                            ***************************************

                                    ---------------------
                                    Active property flags
                                    ---------------------
   (+) Dipole Moment


------------------------------------------------------------------------------
                       ORCA ELECTRIC PROPERTIES CALCULATION
------------------------------------------------------------------------------

Dipole Moment Calculation                       ... on
Quadrupole Moment Calculation                   ... off
Polarizability Calculation                      ... off
GBWName                                         ... scan_c7_o.gbw
Electron density                                ... scan_c7_o.scfp
The origin for moment calculation is the CENTER OF MASS  = ( 3.986150,  1.971405 -0.476481)

-------------
DIPOLE MOMENT
-------------
                                X             Y             Z
Electronic contribution:      2.61810       0.83786       1.62946
Nuclear contribution   :     -2.89758      -0.73866      -2.42842
                        -----------------------------------------
Total Dipole Moment    :     -0.27948       0.09920      -0.79896
                        -----------------------------------------
Magnitude (a.u.)       :      0.85222
Magnitude (Debye)      :      2.16618



--------------------
Rotational spectrum 
--------------------
 
Rotational constants in cm-1:     0.059802     0.031685     0.024327 
Rotational constants in MHz :  1792.831496   949.884605   729.306315 

 Dipole components along the rotational axes: 
x,y,z [a.u.] :    -0.163119    -0.160220    -0.820977 
x,y,z [Debye]:    -0.414616    -0.407247    -2.086759 

 

         *************************************************************
                                TRAJECTORY STEP   2
                  B  :   2.10000000
         *************************************************************
---------------------------------
CARTESIAN COORDINATES (ANGSTROEM)
---------------------------------
  C      0.000000    0.000000    0.000000
  C      1.410409    0.000000    0.000000
  C     -0.724320    1.183586    0.000000
  C      2.073292    1.253208   -0.044708
  C     -0.064411    2.419058   -0.039207
  C      1.323048    2.445080   -0.047743
  H     -0.629466    3.347001   -0.041088
  H      1.852429    3.392160   -0.071804
  C      3.545723    1.317753    0.000066
  H     -0.520004   -0.956528    0.019731
  N      2.085359   -1.205080   -0.068653
  O      4.312423    0.364488    0.139874
  O      4.032585    2.583306   -0.125203
  H      5.005653    2.480252   -0.067898
  H     -1.811547    1.143588    0.009074
  H      3.068328   -1.165755    0.178380
  H      1.581522   -2.004078    0.295737
  O      3.614326    1.206692   -2.095873
  H      2.877590    1.142573   -2.703607
  H      4.389341    1.208841   -2.657637

----------------------------
CARTESIAN COORDINATES (A.U.)
----------------------------
  NO LB      ZA    FRAG     MASS         X           Y           Z
   0 C     6.0000    0    12.011    0.000000    0.000000    0.000000
   1 C     6.0000    0    12.011    2.665286    0.000000    0.000000
   2 C     6.0000    0    12.011   -1.368767    2.236654    0.000000
   3 C     6.0000    0    12.011    3.917954    2.368220   -0.084487
   4 C     6.0000    0    12.011   -0.121718    4.571357   -0.074090
   5 C     6.0000    0    12.011    2.500199    4.620531   -0.090221
   6 H     1.0000    0     1.008   -1.189519    6.324915   -0.077645
   7 H     1.0000    0     1.008    3.500584    6.410253   -0.135689
   8 C     6.0000    0    12.011    6.700446    2.490192    0.000125
   9 H     1.0000    0     1.008   -0.982664   -1.807577    0.037287
  10 N     7.0000    0    14.007    3.940757   -2.277270   -0.129736
  11 O     8.0000    0    15.999    8.149298    0.688782    0.264323
  12 O     8.0000    0    15.999    7.620482    4.881740   -0.236599
  13 H     1.0000    0     1.008    9.459313    4.686996   -0.128308
  14 H     1.0000    0     1.008   -3.423328    2.161068    0.017147
  15 H     1.0000    0     1.008    5.798299   -2.202959    0.337089
  16 H     1.0000    0     1.008    2.988644   -3.787158    0.558863
  17 O     8.0000    0    15.999    6.830087    2.280318   -3.960625
  18 H     1.0000    0     1.008    5.437858    2.159150   -5.109077
  19 H     1.0000    0     1.008    8.294653    2.284379   -5.022205

--------------------------------
INTERNAL COORDINATES (ANGSTROEM)
--------------------------------
 C      0   0   0     0.000000000000     0.00000000     0.00000000
 C      1   0   0     1.410408792387     0.00000000     0.00000000
 C      1   2   0     1.387629674561   121.46540976     0.00000000
 C      2   1   3     1.418429715822   117.86149259   357.95682680
 C      3   1   2     1.401216550379   120.41314464     1.85928728
 C      5   3   1     1.387728922094   119.18088952   358.56672225
 H      5   3   1     1.086448109445   120.54301814   179.88964476
 H      6   5   3     1.085257810950   120.27815199   180.37435074
 C      4   2   1     1.474525319058   120.29082617   177.88235003
 H      1   2   3     1.088916721971   118.52499331   181.18172947
 N      2   1   3     1.382927159506   119.21307977   183.26061362
 O      9   4   2     1.231295327431   126.25299933   356.29999903
 O      9   4   2     1.361745810407   113.26023456   176.60892359
 H     13   9   4     0.980186199946   104.58659711   179.32147663
 H      3   1   2     1.088000665320   119.35735619   180.54826763
 H     11   2   1     1.014297666448   115.28426224   195.45494424
 H     11   2   1     1.012437828384   115.27373933   333.44819984
 O      9   4   2     2.100000000000    90.00000000    90.00000000
 H     18   9   4     0.957200000000   127.74000000     0.00000000
 H     18   9   4     0.957200000000   127.74000000   180.00000000

---------------------------
INTERNAL COORDINATES (A.U.)
---------------------------
 C      0   0   0     0.000000000000     0.00000000     0.00000000
 C      1   0   0     2.665286354486     0.00000000     0.00000000
 C      1   2   0     2.622240060223   121.46540976     0.00000000
 C      2   1   3     2.680443703119   117.86149259   357.95682680
 C      3   1   2     2.647915534534   120.41314464     1.85928728
 C      5   3   1     2.622427610879   119.18088952   358.56672225
 H      5   3   1     2.053089385568   120.54301814   179.88964476
 H      6   5   3     2.050840047394   120.27815199   180.37435074
 C      4   2   1     2.786449030552   120.29082617   177.88235003
 H      1   2   3     2.057754387172   118.52499331   181.18172947
 N      2   1   3     2.613353594628   119.21307977   183.26061362
 O      9   4   2     2.326810958821   126.25299933   356.29999903
 O      9   4   2     2.573326645684   113.26023456   176.60892359
 H     13   9   4     1.852283478147   104.58659711   179.32147663
 H      3   1   2     2.056023290979   119.35735619   180.54826763
 H     11   2   1     1.916744807862   115.28426224   195.45494424
 H     11   2   1     1.913230223268   115.27373933   333.44819984
 O      9   4   2     3.968424881235    90.00000000    90.00000000
 H     18   9   4     1.808845855389   127.74000000     0.00000000
 H     18   9   4     1.808845855389   127.74000000   180.00000000



           ************************************************************
           *        Program running with 4 parallel MPI-processes     *
           *              working on a common directory               *
           ************************************************************
------------------------------------------------------------------------------
                   ___                                                        
                  /   \      - P O W E R E D   B Y -                         
                 /     \                                                     
                 |  |  |   _    _      __       _____    __    __             
                 |  |  |  | |  | |    /  \     |  _  \  |  |  /  |          
                  \  \/   | |  | |   /    \    | | | |  |  | /  /          
                 / \  \   | |__| |  /  /\  \   | |_| |  |  |/  /          
                |  |  |   |  __  | /  /__\  \  |    /   |      \           
                |  |  |   | |  | | |   __   |  |    \   |  |\   \          
                \     /   | |  | | |  |  |  |  | |\  \  |  | \   \       
                 \___/    |_|  |_| |__|  |__|  |_| \__\ |__|  \__/        
                                                                              
                      - O R C A' S   B I G   F R I E N D -                    
                                      &                                       
                       - I N T E G R A L  F E E D E R -                       
                                                                              
 v1 FN, 2020, v2 2021                                                         
------------------------------------------------------------------------------


Reading SHARK input file scan_c7_o.SHARKINP.tmp ... ok
----------------------
SHARK INTEGRAL PACKAGE
----------------------

Number of atoms                             ...     20
Number of basis functions                   ...    172
Number of shells                            ...     84
Maximum angular momentum                    ...      2
Integral batch strategy                     ... SHARK/LIBINT Hybrid
RI-J (if used) integral strategy            ... SPLIT-RIJ (Revised 2003 algorithm where possible)
Printlevel                                  ...      1
Contraction scheme used                     ... SEGMENTED contraction
Coulomb Range Separation                    ... NOT USED
Exchange Range Separation                   ... NOT USED
Finite Nucleus Model                        ... NOT USED
Auxiliary Coulomb fitting basis             ... NOT available
Auxiliary J/K fitting basis                 ... NOT available
Auxiliary Correlation fitting basis         ... NOT available
Auxiliary 'external' fitting basis          ... NOT available
Integral threshold                          ...     1.000000e-10
Primitive cut-off                           ...     1.000000e-11
Primitive pair pre-selection threshold      ...     1.000000e-11

Calculating pre-screening integrals         ... done (  0.0 sec) Dimension = 84
Organizing shell pair data                  ... done (  0.0 sec)
Shell pair information
Total number of shell pairs                 ...      3570
Shell pairs after pre-screening             ...      3248
Total number of primitive shell pairs       ...     20559
Primitive shell pairs kept                  ...     11612
          la=0 lb=0:   1154 shell pairs
          la=1 lb=0:   1058 shell pairs
          la=1 lb=1:    248 shell pairs
          la=2 lb=0:    492 shell pairs
          la=2 lb=1:    235 shell pairs
          la=2 lb=2:     61 shell pairs

Calculating one electron integrals          ... done (  0.0 sec)
Calculating Nuclear repulsion               ... done (  0.0 sec) ENN=    627.443330477713 Eh

SHARK setup successfully completed in   0.1 seconds

Maximum memory used throughout the entire GTOINT-calculation: 11.1 MB


           ************************************************************
           *        Program running with 4 parallel MPI-processes     *
           *              working on a common directory               *
           ************************************************************

Diagonalization of the overlap matrix:
Smallest eigenvalue                        ... 4.150e-04
Time for diagonalization                   ...    0.003 sec
Threshold for overlap eigenvalues          ... 1.000e-08
Number of eigenvalues below threshold      ... 0
Time for construction of square roots      ...    0.001 sec
Total time needed                          ...    0.004 sec

--------------
SCF ITERATIONS
--------------
ITER       Energy         Delta-E        Max-DP      RMS-DP      [F,P]     Damp
               ***  Starting incremental Fock matrix formation  ***
                      *** Initiating the SOSCF procedure ***
                      *** Re-Reading the Fockian *** 
                      *** Removing any level shift *** 
ITER      Energy       Delta-E        Grad      Rot      Max-DP    RMS-DP
  0   -549.32857815 -549.3285781481  0.002649  0.002649  0.010530  0.000301
               *** Restarting incremental Fock matrix formation ***
  1   -549.32915366  -0.0005755133  0.001189  0.001740  0.005013  0.000104
  2   -549.32924769  -0.0000940327  0.000416  0.001063  0.003275  0.000069
  3   -549.32926250  -0.0000148067  0.000169  0.000323  0.000858  0.000012
  4   -549.32926363  -0.0000011284  0.000072  0.000072  0.000196  0.000005
  5   -549.32926392  -0.0000002890  0.000020  0.000061  0.000096  0.000003
                 **** Energy Check signals convergence ****
              ***Rediagonalizing the Fockian in SOSCF/NRSCF***

               *****************************************************
               *                     SUCCESS                       *
               *           SCF CONVERGED AFTER   6 CYCLES          *
               *****************************************************

Total Energy       :         -549.32926396 Eh          -14948.00921 eV
  Last Energy change         ...   -4.5733e-08  Tolerance :   1.0000e-06
  Last MAX-Density change    ...    3.9100e-05  Tolerance :   1.0000e-05
             **** THE GBW FILE WAS UPDATED (scan_c7_o.gbw) ****
             **** DENSITY scan_c7_o.scfp WAS UPDATED ****
             **** ENERGY FILE WAS UPDATED (scan_c7_o.en.tmp) ****
             **** THE GBW FILE WAS UPDATED (scan_c7_o.gbw) ****
             **** DENSITY scan_c7_o.scfp WAS UPDATED ****
Total SCF time: 0 days 0 hours 0 min 7 sec 

Maximum memory used throughout the entire SCF-calculation: 228.9 MB

-------------------------   --------------------
FINAL SINGLE POINT ENERGY      -549.329263963946
-------------------------   --------------------

Storing actual gbw-file in scan_c7_o.002.gbw ... done

                            ***************************************
                            *     ORCA property calculations      *
                            ***************************************

                                    ---------------------
                                    Active property flags
                                    ---------------------
   (+) Dipole Moment


------------------------------------------------------------------------------
                       ORCA ELECTRIC PROPERTIES CALCULATION
------------------------------------------------------------------------------

Dipole Moment Calculation                       ... on
Quadrupole Moment Calculation                   ... off
Polarizability Calculation                      ... off
GBWName                                         ... scan_c7_o.gbw
Electron density                                ... scan_c7_o.scfp
The origin for moment calculation is the CENTER OF MASS  = ( 3.986867,  1.970245 -0.498380)

-------------
DIPOLE MOMENT
-------------
                                X             Y             Z
Electronic contribution:      2.60461       0.83422       1.76617
Nuclear contribution   :     -2.89463      -0.74344      -2.51874
                        -----------------------------------------
Total Dipole Moment    :     -0.29001       0.09078      -0.75256
                        -----------------------------------------
Magnitude (a.u.)       :      0.81160
Magnitude (Debye)      :      2.06293



--------------------
Rotational spectrum 
--------------------
 
Rotational constants in cm-1:     0.058604     0.031284     0.024290 
Rotational constants in MHz :  1756.895305   937.873535   728.210322 

 Dipole components along the rotational axes: 
x,y,z [a.u.] :    -0.173427    -0.151506    -0.778249 
x,y,z [Debye]:    -0.440816    -0.385097    -1.978151 

 

         *************************************************************
                                TRAJECTORY STEP   3
                  B  :   2.20000000
         *************************************************************
---------------------------------
CARTESIAN COORDINATES (ANGSTROEM)
---------------------------------
  C      0.000000    0.000000    0.000000
  C      1.410409    0.000000    0.000000
  C     -0.724320    1.183586    0.000000
  C      2.073292    1.253208   -0.044708
  C     -0.064411    2.419058   -0.039207
  C      1.323048    2.445080   -0.047743
  H     -0.629466    3.347001   -0.041088
  H      1.852429    3.392160   -0.071804
  C      3.545723    1.317753    0.000066
  H     -0.520004   -0.956528    0.019731
  N      2.085359   -1.205080   -0.068653
  O      4.312423    0.364488    0.139874
  O      4.032585    2.583306   -0.125203
  H      5.005653    2.480252   -0.067898
  H     -1.811547    1.143588    0.009074
  H      3.068328   -1.165755    0.178380
  H      1.581522   -2.004078    0.295737
  O      3.617593    1.201403   -2.195679
  H      2.880857    1.137284   -2.803414
  H      4.392608    1.203553   -2.757443

----------------------------
CARTESIAN COORDINATES (A.U.)
----------------------------
  NO LB      ZA    FRAG     MASS         X           Y           Z
   0 C     6.0000    0    12.011    0.000000    0.000000    0.000000
   1 C     6.0000    0    12.011    2.665286    0.000000    0.000000
   2 C     6.0000    0    12.011   -1.368767    2.236654    0.000000
   3 C     6.0000    0    12.011    3.917954    2.368220   -0.084487
   4 C     6.0000    0    12.011   -0.121718    4.571357   -0.074090
   5 C     6.0000    0    12.011    2.500199    4.620531   -0.090221
   6 H     1.0000    0     1.008   -1.189519    6.324915   -0.077645
   7 H     1.0000    0     1.008    3.500584    6.410253   -0.135689
   8 C     6.0000    0    12.011    6.700446    2.490192    0.000125
   9 H     1.0000    0     1.008   -0.982664   -1.807577    0.037287
  10 N     7.0000    0    14.007    3.940757   -2.277270   -0.129736
  11 O     8.0000    0    15.999    8.149298    0.688782    0.264323
  12 O     8.0000    0    15.999    7.620482    4.881740   -0.236599
  13 H     1.0000    0     1.008    9.459313    4.686996   -0.128308
  14 H     1.0000    0     1.008   -3.423328    2.161068    0.017147
  15 H     1.0000    0     1.008    5.798299   -2.202959    0.337089
  16 H     1.0000    0     1.008    2.988644   -3.787158    0.558863
  17 O     8.0000    0    15.999    6.836260    2.270324   -4.149232
  18 H     1.0000    0     1.008    5.444031    2.149156   -5.297684
  19 H     1.0000    0     1.008    8.300826    2.274385   -5.210813

--------------------------------
INTERNAL COORDINATES (ANGSTROEM)
--------------------------------
 C      0   0   0     0.000000000000     0.00000000     0.00000000
 C      1   0   0     1.410408792387     0.00000000     0.00000000
 C      1   2   0     1.387629674561   121.46540976     0.00000000
 C      2   1   3     1.418429715822   117.86149259   357.95682680
 C      3   1   2     1.401216550379   120.41314464     1.85928728
 C      5   3   1     1.387728922094   119.18088952   358.56672225
 H      5   3   1     1.086448109445   120.54301814   179.88964476
 H      6   5   3     1.085257810950   120.27815199   180.37435074
 C      4   2   1     1.474525319058   120.29082617   177.88235003
 H      1   2   3     1.088916721971   118.52499331   181.18172947
 N      2   1   3     1.382927159506   119.21307977   183.26061362
 O      9   4   2     1.231295327431   126.25299933   356.29999903
 O      9   4   2     1.361745810407   113.26023456   176.60892359
 H     13   9   4     0.980186199946   104.58659711   179.32147663
 H      3   1   2     1.088000665320   119.35735619   180.54826763
 H     11   2   1     1.014297666448   115.28426224   195.45494424
 H     11   2   1     1.012437828384   115.27373933   333.44819984
 O      9   4   2     2.200000000000    90.00000000    90.00000000
 H     18   9   4     0.957200000000   127.74000000     0.00000000
 H     18   9   4     0.957200000000   127.74000000   180.00000000

---------------------------
INTERNAL COORDINATES (A.U.)
---------------------------
 C      0   0   0     0.000000000000     0.00000000     0.00000000
 C      1   0   0     2.665286354486     0.00000000     0.00000000
 C      1   2   0     2.622240060223   121.46540976     0.00000000
 C      2   1   3     2.680443703119   117.86149259   357.95682680
 C      3   1   2     2.647915534534   120.41314464     1.85928728
 C      5   3   1     2.622427610879   119.18088952   358.56672225
 H      5   3   1     2.053089385568   120.54301814   179.88964476
 H      6   5   3     2.050840047394   120.27815199   180.37435074
 C      4   2   1     2.786449030552   120.29082617   177.88235003
 H      1   2   3     2.057754387172   118.52499331   181.18172947
 N      2   1   3     2.613353594628   119.21307977   183.26061362
 O      9   4   2     2.326810958821   126.25299933   356.29999903
 O      9   4   2     2.573326645684   113.26023456   176.60892359
 H     13   9   4     1.852283478147   104.58659711   179.32147663
 H      3   1   2     2.056023290979   119.35735619   180.54826763
 H     11   2   1     1.916744807862   115.28426224   195.45494424
 H     11   2   1     1.913230223268   115.27373933   333.44819984
 O      9   4   2     4.157397494627    90.00000000    90.00000000
 H     18   9   4     1.808845855389   127.74000000     0.00000000
 H     18   9   4     1.808845855389   127.74000000   180.00000000



           ************************************************************
           *        Program running with 4 parallel MPI-processes     *
           *              working on a common directory               *
           ************************************************************
------------------------------------------------------------------------------
                   ___                                                        
                  /   \      - P O W E R E D   B Y -                         
                 /     \                                                     
                 |  |  |   _    _      __       _____    __    __             
                 |  |  |  | |  | |    /  \     |  _  \  |  |  /  |          
                  \  \/   | |  | |   /    \    | | | |  |  | /  /          
                 / \  \   | |__| |  /  /\  \   | |_| |  |  |/  /          
                |  |  |   |  __  | /  /__\  \  |    /   |      \           
                |  |  |   | |  | | |   __   |  |    \   |  |\   \          
                \     /   | |  | | |  |  |  |  | |\  \  |  | \   \       
                 \___/    |_|  |_| |__|  |__|  |_| \__\ |__|  \__/        
                                                                              
                      - O R C A' S   B I G   F R I E N D -                    
                                      &                                       
                       - I N T E G R A L  F E E D E R -                       
                                                                              
 v1 FN, 2020, v2 2021                                                         
------------------------------------------------------------------------------


Reading SHARK input file scan_c7_o.SHARKINP.tmp ... ok
----------------------
SHARK INTEGRAL PACKAGE
----------------------

Number of atoms                             ...     20
Number of basis functions                   ...    172
Number of shells                            ...     84
Maximum angular momentum                    ...      2
Integral batch strategy                     ... SHARK/LIBINT Hybrid
RI-J (if used) integral strategy            ... SPLIT-RIJ (Revised 2003 algorithm where possible)
Printlevel                                  ...      1
Contraction scheme used                     ... SEGMENTED contraction
Coulomb Range Separation                    ... NOT USED
Exchange Range Separation                   ... NOT USED
Finite Nucleus Model                        ... NOT USED
Auxiliary Coulomb fitting basis             ... NOT available
Auxiliary J/K fitting basis                 ... NOT available
Auxiliary Correlation fitting basis         ... NOT available
Auxiliary 'external' fitting basis          ... NOT available
Integral threshold                          ...     1.000000e-10
Primitive cut-off                           ...     1.000000e-11
Primitive pair pre-selection threshold      ...     1.000000e-11

Calculating pre-screening integrals         ... done (  0.0 sec) Dimension = 84
Organizing shell pair data                  ... done (  0.0 sec)
Shell pair information
Total number of shell pairs                 ...      3570
Shell pairs after pre-screening             ...      3245
Total number of primitive shell pairs       ...     20559
Primitive shell pairs kept                  ...     11575
          la=0 lb=0:   1153 shell pairs
          la=1 lb=0:   1058 shell pairs
          la=1 lb=1:    248 shell pairs
          la=2 lb=0:    490 shell pairs
          la=2 lb=1:    235 shell pairs
          la=2 lb=2:     61 shell pairs

Calculating one electron integrals          ... done (  0.0 sec)
Calculating Nuclear repulsion               ... done (  0.0 sec) ENN=    624.454912365905 Eh

SHARK setup successfully completed in   0.1 seconds

Maximum memory used throughout the entire GTOINT-calculation: 11.0 MB


           ************************************************************
           *        Program running with 4 parallel MPI-processes     *
           *              working on a common directory               *
           ************************************************************

Diagonalization of the overlap matrix:
Smallest eigenvalue                        ... 4.182e-04
Time for diagonalization                   ...    0.002 sec
Threshold for overlap eigenvalues          ... 1.000e-08
Number of eigenvalues below threshold      ... 0
Time for construction of square roots      ...    0.001 sec
Total time needed                          ...    0.004 sec

--------------
SCF ITERATIONS
--------------
ITER       Energy         Delta-E        Max-DP      RMS-DP      [F,P]     Damp
               ***  Starting incremental Fock matrix formation  ***
                      *** Initiating the SOSCF procedure ***
                      *** Re-Reading the Fockian *** 
                      *** Removing any level shift *** 
ITER      Energy       Delta-E        Grad      Rot      Max-DP    RMS-DP
  0   -549.33787754 -549.3378775370  0.002168  0.002168  0.008331  0.000242
               *** Restarting incremental Fock matrix formation ***
  1   -549.33825052  -0.0003729840  0.001259  0.001888  0.004136  0.000086
  2   -549.33830603  -0.0000555120  0.000445  0.001094  0.002444  0.000049
  3   -549.33831397  -0.0000079375  0.000121  0.000214  0.000561  0.000009
                 **** Energy Check signals convergence ****
              ***Rediagonalizing the Fockian in SOSCF/NRSCF***

               *****************************************************
               *                     SUCCESS                       *
               *           SCF CONVERGED AFTER   4 CYCLES          *
               *****************************************************

Total Energy       :         -549.33831452 Eh          -14948.25549 eV
  Last Energy change         ...   -5.5260e-07  Tolerance :   1.0000e-06
  Last MAX-Density change    ...    1.4485e-04  Tolerance :   1.0000e-05
             **** THE GBW FILE WAS UPDATED (scan_c7_o.gbw) ****
             **** DENSITY scan_c7_o.scfp WAS UPDATED ****
[...]

-------------
DIPOLE MOMENT
-------------
                                X             Y             Z
Electronic contribution:      2.13590       1.16361       9.05144
Nuclear contribution   :     -2.66404      -1.11675      -9.56374
                        -----------------------------------------
Total Dipole Moment    :     -0.52813       0.04687      -0.51230
                        -----------------------------------------
Magnitude (a.u.)       :      0.73728
Magnitude (Debye)      :      1.87401



--------------------
Rotational spectrum 
--------------------
 
Rotational constants in cm-1:     0.027216     0.008994     0.008216 
Rotational constants in MHz :   815.922454   269.627998   246.322602 

 Dipole components along the rotational axes: 
x,y,z [a.u.] :    -0.360788     0.635726    -0.096228 
x,y,z [Debye]:    -0.917050     1.615887    -0.244592 

 

         *************************************************************
                                TRAJECTORY STEP  81
                  B  :  10.00000000
         *************************************************************
---------------------------------
CARTESIAN COORDINATES (ANGSTROEM)
---------------------------------
  C      0.000000    0.000000    0.000000
  C      1.410409    0.000000    0.000000
  C     -0.724320    1.183586    0.000000
  C      2.073292    1.253208   -0.044708
  C     -0.064411    2.419058   -0.039207
  C      1.323048    2.445080   -0.047743
  H     -0.629466    3.347001   -0.041088
  H      1.852429    3.392160   -0.071804
  C      3.545723    1.317753    0.000066
  H     -0.520004   -0.956528    0.019731
  N      2.085359   -1.205080   -0.068653
  O      4.312423    0.364488    0.139874
  O      4.032585    2.583306   -0.125203
  H      5.005653    2.480252   -0.067898
  H     -1.811547    1.143588    0.009074
  H      3.068328   -1.165755    0.178380
  H      1.581522   -2.004078    0.295737
  O      3.872404    0.788893   -9.980594
  H      3.135669    0.724774  -10.588329
  H      4.647419    0.791042  -10.542359

----------------------------
CARTESIAN COORDINATES (A.U.)
----------------------------
  NO LB      ZA    FRAG     MASS         X           Y           Z
   0 C     6.0000    0    12.011    0.000000    0.000000    0.000000
   1 C     6.0000    0    12.011    2.665286    0.000000    0.000000
   2 C     6.0000    0    12.011   -1.368767    2.236654    0.000000
   3 C     6.0000    0    12.011    3.917954    2.368220   -0.084487
   4 C     6.0000    0    12.011   -0.121718    4.571357   -0.074090
   5 C     6.0000    0    12.011    2.500199    4.620531   -0.090221
   6 H     1.0000    0     1.008   -1.189519    6.324915   -0.077645
   7 H     1.0000    0     1.008    3.500584    6.410253   -0.135689
   8 C     6.0000    0    12.011    6.700446    2.490192    0.000125
   9 H     1.0000    0     1.008   -0.982664   -1.807577    0.037287
  10 N     7.0000    0    14.007    3.940757   -2.277270   -0.129736
  11 O     8.0000    0    15.999    8.149298    0.688782    0.264323
  12 O     8.0000    0    15.999    7.620482    4.881740   -0.236599
  13 H     1.0000    0     1.008    9.459313    4.686996   -0.128308
  14 H     1.0000    0     1.008   -3.423328    2.161068    0.017147
  15 H     1.0000    0     1.008    5.798299   -2.202959    0.337089
  16 H     1.0000    0     1.008    2.988644   -3.787158    0.558863
  17 O     8.0000    0    15.999    7.317784    1.490791  -18.860590
  18 H     1.0000    0     1.008    5.925555    1.369624  -20.009042
  19 H     1.0000    0     1.008    8.782350    1.494853  -19.922170

--------------------------------
INTERNAL COORDINATES (ANGSTROEM)
--------------------------------
 C      0   0   0     0.000000000000     0.00000000     0.00000000
 C      1   0   0     1.410408792387     0.00000000     0.00000000
 C      1   2   0     1.387629674561   121.46540976     0.00000000
 C      2   1   3     1.418429715822   117.86149259   357.95682680
 C      3   1   2     1.401216550379   120.41314464     1.85928728
 C      5   3   1     1.387728922094   119.18088952   358.56672225
 H      5   3   1     1.086448109445   120.54301814   179.88964476
 H      6   5   3     1.085257810950   120.27815199   180.37435074
 C      4   2   1     1.474525319058   120.29082617   177.88235003
 H      1   2   3     1.088916721971   118.52499331   181.18172947
 N      2   1   3     1.382927159506   119.21307977   183.26061362
 O      9   4   2     1.231295327431   126.25299933   356.29999903
 O      9   4   2     1.361745810407   113.26023456   176.60892359
 H     13   9   4     0.980186199946   104.58659711   179.32147663
 H      3   1   2     1.088000665320   119.35735619   180.54826763
 H     11   2   1     1.014297666448   115.28426224   195.45494424
 H     11   2   1     1.012437828384   115.27373933   333.44819984
 O      9   4   2    10.000000000000    90.00000000    90.00000000
 H     18   9   4     0.957200000000   127.74000000     0.00000000
 H     18   9   4     0.957200000000   127.74000000   180.00000000

---------------------------
INTERNAL COORDINATES (A.U.)
---------------------------
 C      0   0   0     0.000000000000     0.00000000     0.00000000
 C      1   0   0     2.665286354486     0.00000000     0.00000000
 C      1   2   0     2.622240060223   121.46540976     0.00000000
 C      2   1   3     2.680443703119   117.86149259   357.95682680
 C      3   1   2     2.647915534534   120.41314464     1.85928728
 C      5   3   1     2.622427610879   119.18088952   358.56672225
 H      5   3   1     2.053089385568   120.54301814   179.88964476
 H      6   5   3     2.050840047394   120.27815199   180.37435074
 C      4   2   1     2.786449030552   120.29082617   177.88235003
 H      1   2   3     2.057754387172   118.52499331   181.18172947
 N      2   1   3     2.613353594628   119.21307977   183.26061362
 O      9   4   2     2.326810958821   126.25299933   356.29999903
 O      9   4   2     2.573326645684   113.26023456   176.60892359
 H     13   9   4     1.852283478147   104.58659711   179.32147663
 H      3   1   2     2.056023290979   119.35735619   180.54826763
 H     11   2   1     1.916744807862   115.28426224   195.45494424
 H     11   2   1     1.913230223268   115.27373933   333.44819984
 O      9   4   2    18.897261339213    90.00000000    90.00000000
 H     18   9   4     1.808845855389   127.74000000     0.00000000
 H     18   9   4     1.808845855389   127.74000000   180.00000000



           ************************************************************
           *        Program running with 4 parallel MPI-processes     *
           *              working on a common directory               *
           ************************************************************
------------------------------------------------------------------------------
                   ___                                                        
                  /   \      - P O W E R E D   B Y -                         
                 /     \                                                     
                 |  |  |   _    _      __       _____    __    __             
                 |  |  |  | |  | |    /  \     |  _  \  |  |  /  |          
                  \  \/   | |  | |   /    \    | | | |  |  | /  /          
                 / \  \   | |__| |  /  /\  \   | |_| |  |  |/  /          
                |  |  |   |  __  | /  /__\  \  |    /   |      \           
                |  |  |   | |  | | |   __   |  |    \   |  |\   \          
                \     /   | |  | | |  |  |  |  | |\  \  |  | \   \       
                 \___/    |_|  |_| |__|  |__|  |_| \__\ |__|  \__/        
                                                                              
                      - O R C A' S   B I G   F R I E N D -                    
                                      &                                       
                       - I N T E G R A L  F E E D E R -                       
                                                                              
 v1 FN, 2020, v2 2021                                                         
------------------------------------------------------------------------------


Reading SHARK input file scan_c7_o.SHARKINP.tmp ... ok
----------------------
SHARK INTEGRAL PACKAGE
----------------------

Number of atoms                             ...     20
Number of basis functions                   ...    172
Number of shells                            ...     84
Maximum angular momentum                    ...      2
Integral batch strategy                     ... SHARK/LIBINT Hybrid
RI-J (if used) integral strategy            ... SPLIT-RIJ (Revised 2003 algorithm where possible)
Printlevel                                  ...      1
Contraction scheme used                     ... SEGMENTED contraction
Coulomb Range Separation                    ... NOT USED
Exchange Range Separation                   ... NOT USED
Finite Nucleus Model                        ... NOT USED
Auxiliary Coulomb fitting basis             ... NOT available
Auxiliary J/K fitting basis                 ... NOT available
Auxiliary Correlation fitting basis         ... NOT available
Auxiliary 'external' fitting basis          ... NOT available
Integral threshold                          ...     1.000000e-10
Primitive cut-off                           ...     1.000000e-11
Primitive pair pre-selection threshold      ...     1.000000e-11

Calculating pre-screening integrals         ... done (  0.0 sec) Dimension = 84
Organizing shell pair data                  ... done (  0.0 sec)
Shell pair information
Total number of shell pairs                 ...      3570
Shell pairs after pre-screening             ...      2599
Total number of primitive shell pairs       ...     20559
Primitive shell pairs kept                  ...      9742
          la=0 lb=0:    896 shell pairs
          la=1 lb=0:    849 shell pairs
          la=1 lb=1:    209 shell pairs
          la=2 lb=0:    395 shell pairs
          la=2 lb=1:    198 shell pairs
          la=2 lb=2:     52 shell pairs

Calculating one electron integrals          ... done (  0.0 sec)
Calculating Nuclear repulsion               ... done (  0.0 sec) ENN=    545.268286458468 Eh

SHARK setup successfully completed in   0.1 seconds

Maximum memory used throughout the entire GTOINT-calculation: 10.4 MB


           ************************************************************
           *        Program running with 4 parallel MPI-processes     *
           *              working on a common directory               *
           ************************************************************

Diagonalization of the overlap matrix:
Smallest eigenvalue                        ... 4.305e-04
Time for diagonalization                   ...    0.002 sec
Threshold for overlap eigenvalues          ... 1.000e-08
Number of eigenvalues below threshold      ... 0
Time for construction of square roots      ...    0.001 sec
Total time needed                          ...    0.004 sec

--------------
SCF ITERATIONS
--------------
ITER       Energy         Delta-E        Max-DP      RMS-DP      [F,P]     Damp
               ***  Starting incremental Fock matrix formation  ***
                      *** Initiating the SOSCF procedure ***
                      *** Re-Reading the Fockian *** 
                      *** Removing any level shift *** 
ITER      Energy       Delta-E        Grad      Rot      Max-DP    RMS-DP
  0   -549.35798155 -549.3579815526  0.000005  0.000005  0.000018  0.000001
               *** Restarting incremental Fock matrix formation ***
                 **** Energy Check signals convergence ****
              ***Rediagonalizing the Fockian in SOSCF/NRSCF***

               *****************************************************
               *                     SUCCESS                       *
               *           SCF CONVERGED AFTER   1 CYCLES          *
               *****************************************************

Total Energy       :         -549.35798155 Eh          -14948.79066 eV
  Last Energy change         ...   -1.0639e-09  Tolerance :   1.0000e-06
  Last MAX-Density change    ...    4.2679e-06  Tolerance :   1.0000e-05
             **** THE GBW FILE WAS UPDATED (scan_c7_o.gbw) ****
             **** DENSITY scan_c7_o.scfp WAS UPDATED ****
             **** ENERGY FILE WAS UPDATED (scan_c7_o.en.tmp) ****
             **** THE GBW FILE WAS UPDATED (scan_c7_o.gbw) ****
             **** DENSITY scan_c7_o.scfp WAS UPDATED ****
Total SCF time: 0 days 0 hours 0 min 2 sec 

Maximum memory used throughout the entire SCF-calculation: 228.2 MB

-------------------------   --------------------
FINAL SINGLE POINT ENERGY      -549.357981553667
-------------------------   --------------------

Storing actual gbw-file in scan_c7_o.081.gbw ... done

                            ***************************************
                            *     ORCA property calculations      *
                            ***************************************

                                    ---------------------
                                    Active property flags
                                    ---------------------
   (+) Dipole Moment


------------------------------------------------------------------------------
                       ORCA ELECTRIC PROPERTIES CALCULATION
------------------------------------------------------------------------------

Dipole Moment Calculation                       ... on
Quadrupole Moment Calculation                   ... off
Polarizability Calculation                      ... off
GBWName                                         ... scan_c7_o.gbw
Electron density                                ... scan_c7_o.scfp
The origin for moment calculation is the CENTER OF MASS  = ( 4.043494,  1.878572 -2.228433)

-------------
DIPOLE MOMENT
-------------
                                X             Y             Z
Electronic contribution:      2.13272       1.16839       9.14189
Nuclear contribution   :     -2.66108      -1.12153      -9.65406
                        -----------------------------------------
Total Dipole Moment    :     -0.52836       0.04686      -0.51218
                        -----------------------------------------
Magnitude (a.u.)       :      0.73735
Magnitude (Debye)      :      1.87419



--------------------
Rotational spectrum 
--------------------
 
Rotational constants in cm-1:     0.027197     0.008845     0.008090 
Rotational constants in MHz :   815.354229   265.166365   242.543148 

 Dipole components along the rotational axes: 
x,y,z [a.u.] :    -0.362854     0.634617    -0.096349 
x,y,z [Debye]:    -0.922301     1.613068    -0.244900 

 
                              **** TRAJECTORY DONE ***

                         SUMMARY OF THE CALCULATED SURFACE

------------------
TRAJECTORY RESULTS
------------------

Column   1: B

The Calculated Surface using the 'Actual Energy'
   2.00000000 -549.31703309
   2.10000000 -549.32926396
   2.20000000 -549.33831452
   2.30000000 -549.34485876
   2.40000000 -549.34948145
   2.50000000 -549.35266669
   2.60000000 -549.35480232
   2.70000000 -549.35619150
   2.80000000 -549.35706481
   2.90000000 -549.35759187
   3.00000000 -549.35789173
   3.10000000 -549.35804424
   3.20000000 -549.35810088
   3.30000000 -549.35809431
   3.40000000 -549.35804575
   3.50000000 -549.35797039
   3.60000000 -549.35787973
   3.70000000 -549.35778319
   3.80000000 -549.35768834
   3.90000000 -549.35760089
   4.00000000 -549.35752465
   4.10000000 -549.35746164
   4.20000000 -549.35741237
   4.30000000 -549.35737625
   4.40000000 -549.35735194
   4.50000000 -549.35733775
   4.60000000 -549.35733189
   4.70000000 -549.35733266
   4.80000000 -549.35733851
   4.90000000 -549.35734834
   5.00000000 -549.35736107
   5.10000000 -549.35737591
   5.20000000 -549.35739225
   5.30000000 -549.35740963
   5.40000000 -549.35742771
   5.50000000 -549.35744623
   5.60000000 -549.35746499
   5.70000000 -549.35748384
   5.80000000 -549.35750265
   5.90000000 -549.35752134
   6.00000000 -549.35753983
   6.10000000 -549.35755806
   6.20000000 -549.35757598
   6.30000000 -549.35759357
   6.40000000 -549.35761078
   6.50000000 -549.35762760
   6.60000000 -549.35764402
   6.70000000 -549.35766001
   6.80000000 -549.35767558
   6.90000000 -549.35769071
   7.00000000 -549.35770541
   7.10000000 -549.35771968
   7.20000000 -549.35773353
   7.30000000 -549.35774695
   7.40000000 -549.35775995
   7.50000000 -549.35777254
   7.60000000 -549.35778473
   7.70000000 -549.35779652
   7.80000000 -549.35780793
   7.90000000 -549.35781897
   8.00000000 -549.35782964
   8.10000000 -549.35783995
   8.20000000 -549.35784993
   8.30000000 -549.35785956
   8.40000000 -549.35786887
   8.50000000 -549.35787787
   8.60000000 -549.35788657
   8.70000000 -549.35789497
   8.80000000 -549.35790308
   8.90000000 -549.35791092
   9.00000000 -549.35791850
   9.10000000 -549.35792582
   9.20000000 -549.35793289
   9.30000000 -549.35793973
   9.40000000 -549.35794633
   9.50000000 -549.35795271
   9.60000000 -549.35795888
   9.70000000 -549.35796484
   9.80000000 -549.35797060
   9.90000000 -549.35797617
  10.00000000 -549.35798155

The Calculated Surface using the SCF energy
   2.00000000 -549.31703309
   2.10000000 -549.32926396
   2.20000000 -549.33831452
   2.30000000 -549.34485876
   2.40000000 -549.34948145
   2.50000000 -549.35266669
   2.60000000 -549.35480232
   2.70000000 -549.35619150
   2.80000000 -549.35706481
   2.90000000 -549.35759187
   3.00000000 -549.35789173
   3.10000000 -549.35804424
   3.20000000 -549.35810088
   3.30000000 -549.35809431
   3.40000000 -549.35804575
   3.50000000 -549.35797039
   3.60000000 -549.35787973
   3.70000000 -549.35778319
   3.80000000 -549.35768834
   3.90000000 -549.35760089
   4.00000000 -549.35752465
   4.10000000 -549.35746164
   4.20000000 -549.35741237
   4.30000000 -549.35737625
   4.40000000 -549.35735194
   4.50000000 -549.35733775
   4.60000000 -549.35733189
   4.70000000 -549.35733266
   4.80000000 -549.35733851
   4.90000000 -549.35734834
   5.00000000 -549.35736107
   5.10000000 -549.35737591
   5.20000000 -549.35739225
   5.30000000 -549.35740963
   5.40000000 -549.35742771
   5.50000000 -549.35744623
   5.60000000 -549.35746499
   5.70000000 -549.35748384
   5.80000000 -549.35750265
   5.90000000 -549.35752134
   6.00000000 -549.35753983
   6.10000000 -549.35755806
   6.20000000 -549.35757598
   6.30000000 -549.35759357
   6.40000000 -549.35761078
   6.50000000 -549.35762760
   6.60000000 -549.35764402
   6.70000000 -549.35766001
   6.80000000 -549.35767558
   6.90000000 -549.35769071
   7.00000000 -549.35770541
   7.10000000 -549.35771968
   7.20000000 -549.35773353
   7.30000000 -549.35774695
   7.40000000 -549.35775995
   7.50000000 -549.35777254
   7.60000000 -549.35778473
   7.70000000 -549.35779652
   7.80000000 -549.35780793
   7.90000000 -549.35781897
   8.00000000 -549.35782964
   8.10000000 -549.35783995
   8.20000000 -549.35784993
   8.30000000 -549.35785956
   8.40000000 -549.35786887
   8.50000000 -549.35787787
   8.60000000 -549.35788657
   8.70000000 -549.35789497
   8.80000000 -549.35790308
   8.90000000 -549.35791092
   9.00000000 -549.35791850
   9.10000000 -549.35792582
   9.20000000 -549.35793289
   9.30000000 -549.35793973
   9.40000000 -549.35794633
   9.50000000 -549.35795271
   9.60000000 -549.35795888
   9.70000000 -549.35796484
   9.80000000 -549.35797060
   9.90000000 -549.35797617
  10.00000000 -549.35798155


Timings for individual modules:

Sum of individual times         ...      305.862 sec (=   5.098 min)
GTO integral calculation        ...       36.144 sec (=   0.602 min)  11.8 %
SCF iterations                  ...      269.718 sec (=   4.495 min)  88.2 %
                             ****ORCA TERMINATED NORMALLY****
TOTAL RUN TIME: 0 days 0 hours 5 minutes 38 seconds 583 msec
