
                                 *****************
                                 * O   R   C   A *
                                 *****************

                                            #,                                       
                                            ###                                      
                                            ####                                     
                                            #####                                    
                                            ######                                   
                                           ########,                                 
                                     ,,################,,,,,                         
                               ,,#################################,,                 
                          ,,##########################################,,             
                       ,#########################################, ''#####,          
                    ,#############################################,,   '####,        
                  ,##################################################,,,,####,       
                ,###########''''           ''''###############################       
              ,#####''   ,,,,##########,,,,          '''####'''          '####       
            ,##' ,,,,###########################,,,                        '##       
           ' ,,###''''                  '''############,,,                           
         ,,##''                                '''############,,,,        ,,,,,,###''
      ,#''                                            '''#######################'''  
     '                                                          ''''####''''         
             ,#######,   #######,   ,#######,      ##                                
            ,#'     '#,  ##    ##  ,#'     '#,    #''#        ######   ,####,        
            ##       ##  ##   ,#'  ##            #'  '#       #        #'  '#        
            ##       ##  #######   ##           ,######,      #####,   #    #        
            '#,     ,#'  ##    ##  '#,     ,#' ,#      #,         ##   #,  ,#        
             '#######'   ##     ##  '#######'  #'      '#     #####' # '####'        



                  #######################################################
                  #                        -***-                        #
                  #          Department of theory and spectroscopy      #
                  #    Directorship and core code : Frank Neese         #
                  #        Max Planck Institute fuer Kohlenforschung    #
                  #                Kaiser Wilhelm Platz 1               #
                  #                 D-45470 Muelheim/Ruhr               #
                  #                      Germany                        #
                  #                                                     #
                  #                  All rights reserved                #
                  #                        -***-                        #
                  #######################################################


                         Program Version 5.0.4 -  RELEASE  -


 With contributions from (in alphabetic order):
   Daniel Aravena         : Magnetic Suceptibility
   Michael Atanasov       : Ab Initio Ligand Field Theory (pilot matlab implementation)
   Alexander A. Auer      : GIAO ZORA, VPT2 properties, NMR spectrum
   Ute Becker             : Parallelization
   Giovanni Bistoni       : ED, misc. LED, open-shell LED, HFLD
   Martin Brehm           : Molecular dynamics
   Dmytro Bykov           : SCF Hessian
   Vijay G. Chilkuri      : MRCI spin determinant printing, contributions to CSF-ICE
   Dipayan Datta          : RHF DLPNO-CCSD density
   Achintya Kumar Dutta   : EOM-CC, STEOM-CC
   Dmitry Ganyushin       : Spin-Orbit,Spin-Spin,Magnetic field MRCI
   Miquel Garcia          : C-PCM and meta-GGA Hessian, CC/C-PCM, Gaussian charge scheme
   Yang Guo               : DLPNO-NEVPT2, F12-NEVPT2, CIM, IAO-localization
   Andreas Hansen         : Spin unrestricted coupled pair/coupled cluster methods
   Benjamin Helmich-Paris : MC-RPA, TRAH-SCF, COSX integrals
   Lee Huntington         : MR-EOM, pCC
   Robert Izsak           : Overlap fitted RIJCOSX, COSX-SCS-MP3, EOM
   Marcus Kettner         : VPT2
   Christian Kollmar      : KDIIS, OOCD, Brueckner-CCSD(T), CCSD density, CASPT2, CASPT2-K
   Simone Kossmann        : Meta GGA functionals, TD-DFT gradient, OOMP2, MP2 Hessian
   Martin Krupicka        : Initial AUTO-CI
   Lucas Lang             : DCDCAS
   Marvin Lechner         : AUTO-CI (C++ implementation), FIC-MRCC
   Dagmar Lenk            : GEPOL surface, SMD
   Dimitrios Liakos       : Extrapolation schemes; Compound Job, initial MDCI parallelization
   Dimitrios Manganas     : Further ROCIS development; embedding schemes
   Dimitrios Pantazis     : SARC Basis sets
   Anastasios Papadopoulos: AUTO-CI, single reference methods and gradients
   Taras Petrenko         : DFT Hessian,TD-DFT gradient, ASA, ECA, R-Raman, ABS, FL, XAS/XES, NRVS
   Peter Pinski           : DLPNO-MP2, DLPNO-MP2 Gradient
   Christoph Reimann      : Effective Core Potentials
   Marius Retegan         : Local ZFS, SOC
   Christoph Riplinger    : Optimizer, TS searches, QM/MM, DLPNO-CCSD(T), (RO)-DLPNO pert. Triples
   Tobias Risthaus        : Range-separated hybrids, TD-DFT gradient, RPA, STAB
   Michael Roemelt        : Original ROCIS implementation
   Masaaki Saitow         : Open-shell DLPNO-CCSD energy and density
   Barbara Sandhoefer     : DKH picture change effects
   Avijit Sen             : IP-ROCIS
   Kantharuban Sivalingam : CASSCF convergence, NEVPT2, FIC-MRCI
   Bernardo de Souza      : ESD, SOC TD-DFT
   Georgi Stoychev        : AutoAux, RI-MP2 NMR, DLPNO-MP2 response
   Willem Van den Heuvel  : Paramagnetic NMR
   Boris Wezisla          : Elementary symmetry handling
   Frank Wennmohs         : Technical directorship


 We gratefully acknowledge several colleagues who have allowed us to
 interface, adapt or use parts of their codes:
   Stefan Grimme, W. Hujo, H. Kruse, P. Pracht,  : VdW corrections, initial TS optimization,
                  C. Bannwarth, S. Ehlert          DFT functionals, gCP, sTDA/sTD-DF
   Ed Valeev, F. Pavosevic, A. Kumar             : LibInt (2-el integral package), F12 methods
   Garnet Chan, S. Sharma, J. Yang, R. Olivares  : DMRG
   Ulf Ekstrom                                   : XCFun DFT Library
   Mihaly Kallay                                 : mrcc  (arbitrary order and MRCC methods)
   Jiri Pittner, Ondrej Demel                    : Mk-CCSD
   Frank Weinhold                                : gennbo (NPA and NBO analysis)
   Christopher J. Cramer and Donald G. Truhlar   : smd solvation model
   Lars Goerigk                                  : TD-DFT with DH, B97 family of functionals
   V. Asgeirsson, H. Jonsson                     : NEB implementation
   FAccTs GmbH                                   : IRC, NEB, NEB-TS, DLPNO-Multilevel, CI-OPT
                                                   MM, QMMM, 2- and 3-layer-ONIOM, Crystal-QMMM,
                                                   LR-CPCM, SF, NACMEs, symmetry and pop. for TD-DFT,
                                                   nearIR, NL-DFT gradient (VV10), updates on ESD,
                                                   ML-optimized integration grids
   S Lehtola, MJT Oliveira, MAL Marques          : LibXC Library
   Liviu Ungur et al                             : ANISO software


 Your calculation uses the libint2 library for the computation of 2-el integrals
 For citations please refer to: http://libint.valeyev.net

 Your ORCA version has been built with support for libXC version: 5.1.0
 For citations please refer to: https://tddft.org/programs/libxc/

 This ORCA versions uses:
   CBLAS   interface :  Fast vector & matrix operations
   LAPACKE interface :  Fast linear algebra routines
   SCALAPACK package :  Parallel linear algebra routines
   Shared memory     :  Shared parallel matrices
   BLAS/LAPACK       :  OpenBLAS 0.3.15  USE64BITINT DYNAMIC_ARCH NO_AFFINITY SkylakeX SINGLE_THREADED
        Core in use  :  SkylakeX
   Copyright (c) 2011-2014, The OpenBLAS Project


================================================================================

----- Orbital basis set information -----
Your calculation utilizes the basis: 6-31G(d)
   H-He, Li-Ne : W. J. Hehre, R. Ditchfield and J.A. Pople, J. Chem. Phys. 56, 2257 (1972).
                 Note: He and Ne are unpublished basis sets taken from the Gaussian program.
                 Note: Li and B from J. D. Dill and J. A. Pople, J. Chem. Phys. 62, 2921 (1975).
   Na - Ar     : M. M. Francl, W. J. Pietro, W. J. Hehre, J. S. Binkley, M. S. Gordon, 
                 D. J. DeFrees and J. A. Pople, J. Chem. Phys. 77, 3654 (1982).
   K - Zn      : V. A. Rassolov, J. A. Pople, M. A. Ratner, and T. L. Windus, J. Chem. Phys. 109, 1223 (1998).

================================================================================
                                        WARNINGS
                       Please study these warnings very carefully!
================================================================================


INFO   : the flag for use of the SHARK integral package has been found!

================================================================================
                                       INPUT FILE
================================================================================
NAME = scan_c4_h.in
|  1> ! HF 6-31g(d) PAL4
|  2> 
|  3> %paras  
|  4> B=2,10,81
|  5> end 
|  6> 
|  7> *int 0 1
|  8>  C      0   0   0     0.000000000000     0.00000000     0.00000000
|  9>  C      1   0   0     1.410408792387     0.00000000     0.00000000
| 10>  C      1   2   0     1.387629674561   121.46540976     0.00000000
| 11>  C      2   1   3     1.418429715822   117.86149259   357.95682680
| 12>  C      3   1   2     1.401216550379   120.41314464     1.85928728
| 13>  C      5   3   1     1.387728922094   119.18088952   358.56672225
| 14>  H      5   3   1     1.086448109445   120.54301814   179.88964476
| 15>  H      6   5   3     1.085257810950   120.27815199   180.37435074
| 16>  C      4   2   1     1.474525319058   120.29082617   177.88235003
| 17>  H      1   2   3     1.088916721971   118.52499331   181.18172947
| 18>  N      2   1   3     1.382927159506   119.21307977   183.26061362
| 19>  O      9   4   2     1.231295327431   126.25299933   356.29999903
| 20>  O      9   4   2     1.361745810407   113.26023456   176.60892359
| 21>  H     13   9   4     0.980186199946   104.58659711   179.32147663
| 22>  H      3   1   2     1.088000665320   119.35735619   180.54826763
| 23>  H     11   2   1     1.014297666448   115.28426224   195.45494424
| 24>  H     11   2   1     1.012437828384   115.27373933   333.44819984
| 25>  H      4   2   1     {B}               90.00000000    90.00000000
| 26>  O     18   4   2     0.957200000000   180.00000000    90.00000000 
| 27>  H     19   4   2     0.957200000000   104.52000000   180.00000000  
| 28> *
| 29> 
| 30>                          ****END OF INPUT****
================================================================================

                       ******************************
                       * Parameter Scan Calculation *
                       ******************************

Trajectory settings:
    -> SCF surface will be mapped

There are 1 parameter(s) to be scanned
             B: range=   2.00000000 ..  10.00000000  steps=   81
There will be   81 energy evaluations


         *************************************************************
                                TRAJECTORY STEP   1
                  B  :   2.00000000
         *************************************************************
---------------------------------
CARTESIAN COORDINATES (ANGSTROEM)
---------------------------------
  C      0.000000    0.000000    0.000000
  C      1.410409    0.000000    0.000000
  C     -0.724320    1.183586    0.000000
  C      2.073292    1.253208   -0.044708
  C     -0.064411    2.419058   -0.039207
  C      1.323048    2.445080   -0.047743
  H     -0.629466    3.347001   -0.041088
  H      1.852429    3.392160   -0.071804
  C      3.545723    1.317753    0.000066
  H     -0.520004   -0.956528    0.019731
  N      2.085359   -1.205080   -0.068653
  O      4.312423    0.364488    0.139874
  O      4.032585    2.583306   -0.125203
  H      5.005653    2.480252   -0.067898
  H     -1.811547    1.143588    0.009074
  H      3.068328   -1.165755    0.178380
  H      1.581522   -2.004078    0.295737
  H      2.073292    1.324513    1.954020
  O      2.073292    1.358640    2.910611
  H      2.506338    2.185888    3.121239

----------------------------
CARTESIAN COORDINATES (A.U.)
----------------------------
  NO LB      ZA    FRAG     MASS         X           Y           Z
   0 C     6.0000    0    12.011    0.000000    0.000000    0.000000
   1 C     6.0000    0    12.011    2.665286    0.000000    0.000000
   2 C     6.0000    0    12.011   -1.368767    2.236654    0.000000
   3 C     6.0000    0    12.011    3.917954    2.368220   -0.084487
   4 C     6.0000    0    12.011   -0.121718    4.571357   -0.074090
   5 C     6.0000    0    12.011    2.500199    4.620531   -0.090221
   6 H     1.0000    0     1.008   -1.189519    6.324915   -0.077645
   7 H     1.0000    0     1.008    3.500584    6.410253   -0.135689
   8 C     6.0000    0    12.011    6.700446    2.490192    0.000125
   9 H     1.0000    0     1.008   -0.982664   -1.807577    0.037287
  10 N     7.0000    0    14.007    3.940757   -2.277270   -0.129736
  11 O     8.0000    0    15.999    8.149298    0.688782    0.264323
  12 O     8.0000    0    15.999    7.620482    4.881740   -0.236599
  13 H     1.0000    0     1.008    9.459313    4.686996   -0.128308
  14 H     1.0000    0     1.008   -3.423328    2.161068    0.017147
  15 H     1.0000    0     1.008    5.798299   -2.202959    0.337089
  16 H     1.0000    0     1.008    2.988644   -3.787158    0.558863
  17 H     1.0000    0     1.008    3.917954    2.502967    3.692563
  18 O     8.0000    0    15.999    3.917954    2.567457    5.500259
  19 H     1.0000    0     1.008    4.736292    4.130729    5.898287

--------------------------------
INTERNAL COORDINATES (ANGSTROEM)
--------------------------------
 C      0   0   0     0.000000000000     0.00000000     0.00000000
 C      1   0   0     1.410408792387     0.00000000     0.00000000
 C      1   2   0     1.387629674561   121.46540976     0.00000000
 C      2   1   3     1.418429715822   117.86149259   357.95682680
 C      3   1   2     1.401216550379   120.41314464     1.85928728
 C      5   3   1     1.387728922094   119.18088952   358.56672225
 H      5   3   1     1.086448109445   120.54301814   179.88964476
 H      6   5   3     1.085257810950   120.27815199   180.37435074
 C      4   2   1     1.474525319058   120.29082617   177.88235003
 H      1   2   3     1.088916721971   118.52499331   181.18172947
 N      2   1   3     1.382927159506   119.21307977   183.26061362
 O      9   4   2     1.231295327431   126.25299933   356.29999903
 O      9   4   2     1.361745810407   113.26023456   176.60892359
 H     13   9   4     0.980186199946   104.58659711   179.32147663
 H      3   1   2     1.088000665320   119.35735619   180.54826763
 H     11   2   1     1.014297666448   115.28426224   195.45494424
 H     11   2   1     1.012437828384   115.27373933   333.44819984
 H      4   2   1     2.000000000000    90.00000000    90.00000000
 O     18   4   2     0.957200000000   180.00000000    90.00000000
 H     19   4   2     0.957200000000   104.52000000   180.00000000

---------------------------
INTERNAL COORDINATES (A.U.)
---------------------------
 C      0   0   0     0.000000000000     0.00000000     0.00000000
 C      1   0   0     2.665286354486     0.00000000     0.00000000
 C      1   2   0     2.622240060223   121.46540976     0.00000000
 C      2   1   3     2.680443703119   117.86149259   357.95682680
 C      3   1   2     2.647915534534   120.41314464     1.85928728
 C      5   3   1     2.622427610879   119.18088952   358.56672225
 H      5   3   1     2.053089385568   120.54301814   179.88964476
 H      6   5   3     2.050840047394   120.27815199   180.37435074
 C      4   2   1     2.786449030552   120.29082617   177.88235003
 H      1   2   3     2.057754387172   118.52499331   181.18172947
 N      2   1   3     2.613353594628   119.21307977   183.26061362
 O      9   4   2     2.326810958821   126.25299933   356.29999903
 O      9   4   2     2.573326645684   113.26023456   176.60892359
 H     13   9   4     1.852283478147   104.58659711   179.32147663
 H      3   1   2     2.056023290979   119.35735619   180.54826763
 H     11   2   1     1.916744807862   115.28426224   195.45494424
 H     11   2   1     1.913230223268   115.27373933   333.44819984
 H      4   2   1     3.779452267843    90.00000000    90.00000000
 O     18   4   2     1.808845855389   180.00000000    90.00000000
 H     19   4   2     1.808845855389   104.52000000   180.00000000

---------------------
BASIS SET INFORMATION
---------------------
There are 4 groups of distinct atoms

 Group   1 Type C   : 10s4p1d contracted to 3s2p1d pattern {631/31/1}
 Group   2 Type H   : 4s contracted to 2s pattern {31}
 Group   3 Type N   : 10s4p1d contracted to 3s2p1d pattern {631/31/1}
 Group   4 Type O   : 10s4p1d contracted to 3s2p1d pattern {631/31/1}

Atom   0C    basis set group =>   1
Atom   1C    basis set group =>   1
Atom   2C    basis set group =>   1
Atom   3C    basis set group =>   1
Atom   4C    basis set group =>   1
Atom   5C    basis set group =>   1
Atom   6H    basis set group =>   2
Atom   7H    basis set group =>   2
Atom   8C    basis set group =>   1
Atom   9H    basis set group =>   2
Atom  10N    basis set group =>   3
Atom  11O    basis set group =>   4
Atom  12O    basis set group =>   4
Atom  13H    basis set group =>   2
Atom  14H    basis set group =>   2
Atom  15H    basis set group =>   2
Atom  16H    basis set group =>   2
Atom  17H    basis set group =>   2
Atom  18O    basis set group =>   4
Atom  19H    basis set group =>   2


           ************************************************************
           *        Program running with 4 parallel MPI-processes     *
           *              working on a common directory               *
           ************************************************************
------------------------------------------------------------------------------
                           ORCA GTO INTEGRAL CALCULATION
------------------------------------------------------------------------------
------------------------------------------------------------------------------
                   ___                                                        
                  /   \      - P O W E R E D   B Y -                         
                 /     \                                                     
                 |  |  |   _    _      __       _____    __    __             
                 |  |  |  | |  | |    /  \     |  _  \  |  |  /  |          
                  \  \/   | |  | |   /    \    | | | |  |  | /  /          
                 / \  \   | |__| |  /  /\  \   | |_| |  |  |/  /          
                |  |  |   |  __  | /  /__\  \  |    /   |      \           
                |  |  |   | |  | | |   __   |  |    \   |  |\   \          
                \     /   | |  | | |  |  |  |  | |\  \  |  | \   \       
                 \___/    |_|  |_| |__|  |__|  |_| \__\ |__|  \__/        
                                                                              
                      - O R C A' S   B I G   F R I E N D -                    
                                      &                                       
                       - I N T E G R A L  F E E D E R -                       
                                                                              
 v1 FN, 2020, v2 2021                                                         
------------------------------------------------------------------------------


Reading SHARK input file scan_c4_h.SHARKINP.tmp ... ok
----------------------
SHARK INTEGRAL PACKAGE
----------------------

Number of atoms                             ...     20
Number of basis functions                   ...    172
Number of shells                            ...     84
Maximum angular momentum                    ...      2
Integral batch strategy                     ... SHARK/LIBINT Hybrid
RI-J (if used) integral strategy            ... SPLIT-RIJ (Revised 2003 algorithm where possible)
Printlevel                                  ...      1
Contraction scheme used                     ... SEGMENTED contraction
Coulomb Range Separation                    ... NOT USED
Exchange Range Separation                   ... NOT USED
Finite Nucleus Model                        ... NOT USED
Auxiliary Coulomb fitting basis             ... NOT available
Auxiliary J/K fitting basis                 ... NOT available
Auxiliary Correlation fitting basis         ... NOT available
Auxiliary 'external' fitting basis          ... NOT available
Integral threshold                          ...     1.000000e-10
Primitive cut-off                           ...     1.000000e-11
Primitive pair pre-selection threshold      ...     1.000000e-11

Calculating pre-screening integrals         ... done (  0.0 sec) Dimension = 84
Organizing shell pair data                  ... done (  0.0 sec)
Shell pair information
Total number of shell pairs                 ...      3570
Shell pairs after pre-screening             ...      3259
Total number of primitive shell pairs       ...     20559
Primitive shell pairs kept                  ...     11527
          la=0 lb=0:   1155 shell pairs
          la=1 lb=0:   1059 shell pairs
          la=1 lb=1:    249 shell pairs
          la=2 lb=0:    496 shell pairs
          la=2 lb=1:    238 shell pairs
          la=2 lb=2:     62 shell pairs

Calculating one electron integrals          ... done (  0.0 sec)
Calculating Nuclear repulsion               ... done (  0.0 sec) ENN=    616.145857830060 Eh

SHARK setup successfully completed in   0.1 seconds

Maximum memory used throughout the entire GTOINT-calculation: 11.0 MB


           ************************************************************
           *        Program running with 4 parallel MPI-processes     *
           *              working on a common directory               *
           ************************************************************
-------------------------------------------------------------------------------
                                 ORCA SCF
-------------------------------------------------------------------------------

------------
SCF SETTINGS
------------
Hamiltonian:
 Ab initio Hamiltonian  Method          .... Hartree-Fock(GTOs)


General Settings:
 Integral files         IntName         .... scan_c4_h
 Hartree-Fock type      HFTyp           .... RHF
 Total Charge           Charge          ....    0
 Multiplicity           Mult            ....    1
 Number of Electrons    NEL             ....   82
 Basis Dimension        Dim             ....  172
 Nuclear Repulsion      ENuc            ....    616.1458578301 Eh

Convergence Acceleration:
 DIIS                   CNVDIIS         .... on
   Start iteration      DIISMaxIt       ....    12
   Startup error        DIISStart       ....  0.200000
   # of expansion vecs  DIISMaxEq       ....     5
   Bias factor          DIISBfac        ....   1.050
   Max. coefficient     DIISMaxC        ....  10.000
 Trust-Rad. Augm. Hess. CNVTRAH         .... auto
   Auto Start mean grad. ratio tolernc. ....  1.125000
   Auto Start start iteration           ....    20
   Auto Start num. interpolation iter.  ....    10
   Max. Number of Micro iterations      ....    16
   Max. Number of Macro iterations      .... Maxiter - #DIIS iter
   Number of Davidson start vectors     ....     2
   Converg. threshold I  (grad. norm)   ....   5.000e-05
   Converg. threshold II (energy diff.) ....   1.000e-06
   Grad. Scal. Fac. for Micro threshold ....   0.100
   Minimum threshold for Micro iter.    ....   0.010
   NR start threshold (gradient norm)   ....   0.001
   Initial trust radius                 ....   0.400
   Minimum AH scaling param. (alpha)    ....   1.000
   Maximum AH scaling param. (alpha)    .... 1000.000
   Orbital update algorithm             .... Taylor
   White noise on init. David. guess    .... on
   Maximum white noise                  ....   0.010
   Quad. conv. algorithm                .... NR
 SOSCF                  CNVSOSCF        .... on
   Start iteration      SOSCFMaxIt      ....   150
   Startup grad/error   SOSCFStart      ....  0.003300
 Level Shifting         CNVShift        .... on
   Level shift para.    LevelShift      ....    0.2500
   Turn off err/grad.   ShiftErr        ....    0.0010
 Zerner damping         CNVZerner       .... off
 Static damping         CNVDamp         .... on
   Fraction old density DampFac         ....    0.7000
   Max. Damping (<1)    DampMax         ....    0.9800
   Min. Damping (>=0)   DampMin         ....    0.0000
   Turn off err/grad.   DampErr         ....    0.1000
 Fernandez-Rico         CNVRico         .... off

SCF Procedure:
 Maximum # iterations   MaxIter         ....   125
 SCF integral mode      SCFMode         .... Direct
   Integral package                     .... SHARK and LIBINT hybrid scheme
 Reset frequency        DirectResetFreq ....    20
 Integral Threshold     Thresh          ....  1.000e-10 Eh
 Primitive CutOff       TCut            ....  1.000e-11 Eh

Convergence Tolerance:
 Convergence Check Mode ConvCheckMode   .... Total+1el-Energy
 Convergence forced     ConvForced      .... 0
 Energy Change          TolE            ....  1.000e-06 Eh
 1-El. energy change                    ....  1.000e-03 Eh
 Orbital Gradient       TolG            ....  5.000e-05
 Orbital Rotation angle TolX            ....  5.000e-05
 DIIS Error             TolErr          ....  1.000e-06


Diagonalization of the overlap matrix:
Smallest eigenvalue                        ... 4.242e-04
Time for diagonalization                   ...    0.003 sec
Threshold for overlap eigenvalues          ... 1.000e-08
Number of eigenvalues below threshold      ... 0
Time for construction of square roots      ...    0.001 sec
Total time needed                          ...    0.004 sec

Time for model grid setup =    0.105 sec

------------------------------
INITIAL GUESS: MODEL POTENTIAL
------------------------------
Loading Hartree-Fock densities                     ... done
Calculating cut-offs                               ... done
Initializing the effective Hamiltonian             ... done
Setting up the integral package (SHARK)            ... done
Starting the Coulomb interaction                   ... done (   0.0 sec)
Reading the grid                                   ... done
Mapping shells                                     ... done
Starting the XC term evaluation                    ... done (   0.0 sec)
Transforming the Hamiltonian                       ... done (   0.0 sec)
Diagonalizing the Hamiltonian                      ... done (   0.0 sec)
Back transforming the eigenvectors                 ... done (   0.0 sec)
Now organizing SCF variables                       ... done
                      ------------------
                      INITIAL GUESS DONE (   0.2 sec)
                      ------------------
--------------
SCF ITERATIONS
--------------
ITER       Energy         Delta-E        Max-DP      RMS-DP      [F,P]     Damp
               ***  Starting incremental Fock matrix formation  ***
  0   -548.8989735564   0.000000000000 0.06795401  0.00235830  0.3131873 0.7000
  1   -549.0612984676  -0.162324911178 0.04716790  0.00178638  0.1873945 0.7000
                               ***Turning on DIIS***
  2   -549.1563618901  -0.095063422551 0.02698266  0.00118367  0.1015190 0.7000
  3   -550.2448499081  -1.088488017981 0.05018778  0.00261363  0.0540932 0.0000
  4   -549.3131898965   0.931660011586 0.00728720  0.00037890  0.0090848 0.0000
  5   -549.3710530883  -0.057863191818 0.00434877  0.00017761  0.0047272 0.0000
                      *** Initiating the SOSCF procedure ***
                           *** Shutting down DIIS ***
                      *** Re-Reading the Fockian *** 
                      *** Removing any level shift *** 
ITER      Energy       Delta-E        Grad      Rot      Max-DP    RMS-DP
  6   -549.35088799   0.0201650940  0.001464  0.001464  0.002734  0.000087
               *** Restarting incremental Fock matrix formation ***
  7   -549.35180225  -0.0009142559  0.000628  0.001420  0.001444  0.000049
  8   -549.35182678  -0.0000245286  0.000373  0.002058  0.002223  0.000064
  9   -549.35183759  -0.0000108068  0.000213  0.000253  0.000413  0.000013
 10   -549.35183889  -0.0000012996  0.000065  0.000176  0.000143  0.000005
                 **** Energy Check signals convergence ****
              ***Rediagonalizing the Fockian in SOSCF/NRSCF***

               *****************************************************
               *                     SUCCESS                       *
               *           SCF CONVERGED AFTER  11 CYCLES          *
               *****************************************************


----------------
TOTAL SCF ENERGY
----------------

Total Energy       :         -549.35183906 Eh          -14948.62351 eV

Components:
Nuclear Repulsion  :          616.14585783 Eh           16766.18117 eV
Electronic Energy  :        -1165.49769689 Eh          -31714.80468 eV
One Electron Energy:        -1973.58781999 Eh          -53704.05484 eV
Two Electron Energy:          808.09012311 Eh           21989.25016 eV

Virial components:
Potential Energy   :        -1098.02477860 Eh          -29878.77323 eV
Kinetic Energy     :          548.67293954 Eh           14930.14972 eV
Virial Ratio       :            2.00123735


---------------
SCF CONVERGENCE
---------------

  Last Energy change         ...   -1.7137e-07  Tolerance :   1.0000e-06
  Last MAX-Density change    ...    1.0616e-04  Tolerance :   1.0000e-05
  Last RMS-Density change    ...    3.8738e-06  Tolerance :   1.0000e-06
  Last Orbital Gradient      ...    3.2979e-05  Tolerance :   5.0000e-05
  Last Orbital Rotation      ...    1.9104e-04  Tolerance :   5.0000e-05

             **** THE GBW FILE WAS UPDATED (scan_c4_h.gbw) ****
             **** DENSITY scan_c4_h.scfp WAS UPDATED ****
             **** ENERGY FILE WAS UPDATED (scan_c4_h.en.tmp) ****
             **** THE GBW FILE WAS UPDATED (scan_c4_h.gbw) ****
             **** DENSITY scan_c4_h.scfp WAS UPDATED ****
----------------
ORBITAL ENERGIES
----------------

  NO   OCC          E(Eh)            E(eV) 
   0   2.0000     -20.623967      -561.2067 
   1   2.0000     -20.561277      -559.5008 
   2   2.0000     -20.531578      -558.6926 
   3   2.0000     -15.569251      -423.6609 
   4   2.0000     -11.405679      -310.3643 
   5   2.0000     -11.312372      -307.8253 
   6   2.0000     -11.263268      -306.4891 
   7   2.0000     -11.262998      -306.4818 
   8   2.0000     -11.252652      -306.2002 
   9   2.0000     -11.239818      -305.8510 
  10   2.0000     -11.236203      -305.7526 
  11   2.0000      -1.466256       -39.8989 
  12   2.0000      -1.358225       -36.9592 
  13   2.0000      -1.323355       -36.0103 
  14   2.0000      -1.237203       -33.6660 
  15   2.0000      -1.146856       -31.2075 
  16   2.0000      -1.053792       -28.6751 
  17   2.0000      -1.006439       -27.3866 
  18   2.0000      -0.899351       -24.4726 
  19   2.0000      -0.846132       -23.0244 
  20   2.0000      -0.806319       -21.9411 
  21   2.0000      -0.727000       -19.7827 
  22   2.0000      -0.709930       -19.3182 
  23   2.0000      -0.698089       -18.9960 
  24   2.0000      -0.697265       -18.9736 
  25   2.0000      -0.689633       -18.7659 
  26   2.0000      -0.640875       -17.4391 
  27   2.0000      -0.636195       -17.3117 
  28   2.0000      -0.617695       -16.8083 
  29   2.0000      -0.603407       -16.4195 
  30   2.0000      -0.584548       -15.9064 
  31   2.0000      -0.559233       -15.2175 
  32   2.0000      -0.544077       -14.8051 
  33   2.0000      -0.533726       -14.5234 
  34   2.0000      -0.516171       -14.0457 
  35   2.0000      -0.488617       -13.2959 
  36   2.0000      -0.476429       -12.9643 
  37   2.0000      -0.457292       -12.4436 
  38   2.0000      -0.452680       -12.3180 
  39   2.0000      -0.360881        -9.8201 
  40   2.0000      -0.306994        -8.3537 
  41   0.0000       0.081909         2.2288 
  42   0.0000       0.142565         3.8794 
  43   0.0000       0.216950         5.9035 
  44   0.0000       0.223868         6.0917 
  45   0.0000       0.235276         6.4022 
  46   0.0000       0.244602         6.6560 
  47   0.0000       0.249054         6.7771 
  48   0.0000       0.289481         7.8772 
  49   0.0000       0.315480         8.5847 
  50   0.0000       0.328662         8.9433 
  51   0.0000       0.339716         9.2442 
  52   0.0000       0.372980        10.1493 
  53   0.0000       0.381046        10.3688 
  54   0.0000       0.426934        11.6175 
  55   0.0000       0.429910        11.6984 
  56   0.0000       0.441392        12.0109 
  57   0.0000       0.489189        13.3115 
  58   0.0000       0.508116        13.8266 
  59   0.0000       0.536261        14.5924 
  60   0.0000       0.566029        15.4024 
  61   0.0000       0.585920        15.9437 
  62   0.0000       0.695736        18.9319 
  63   0.0000       0.717340        19.5198 
  64   0.0000       0.744979        20.2719 
  65   0.0000       0.752390        20.4736 
  66   0.0000       0.761202        20.7134 
  67   0.0000       0.778869        21.1941 
  68   0.0000       0.799747        21.7622 
  69   0.0000       0.804010        21.8782 
  70   0.0000       0.824471        22.4350 
  71   0.0000       0.826462        22.4892 
  72   0.0000       0.845194        22.9989 
  73   0.0000       0.850406        23.1407 
  74   0.0000       0.882234        24.0068 
  75   0.0000       0.890764        24.2389 
  76   0.0000       0.914593        24.8873 
  77   0.0000       0.947336        25.7783 
  78   0.0000       0.969357        26.3775 
  79   0.0000       0.982571        26.7371 
  80   0.0000       1.021719        27.8024 
  81   0.0000       1.052477        28.6393 
  82   0.0000       1.071966        29.1697 
  83   0.0000       1.078856        29.3572 
  84   0.0000       1.093169        29.7467 
  85   0.0000       1.105276        30.0761 
  86   0.0000       1.110148        30.2087 
  87   0.0000       1.113601        30.3026 
  88   0.0000       1.150098        31.2958 
  89   0.0000       1.170880        31.8613 
  90   0.0000       1.181412        32.1479 
  91   0.0000       1.198431        32.6110 
  92   0.0000       1.207089        32.8465 
  93   0.0000       1.210784        32.9471 
  94   0.0000       1.219019        33.1712 
  95   0.0000       1.230181        33.4749 
  96   0.0000       1.252880        34.0926 
  97   0.0000       1.274393        34.6780 
  98   0.0000       1.302551        35.4442 
  99   0.0000       1.312178        35.7062 
 100   0.0000       1.320624        35.9360 
 101   0.0000       1.352853        36.8130 
 102   0.0000       1.377910        37.4948 
 103   0.0000       1.406819        38.2815 
 104   0.0000       1.412738        38.4426 
 105   0.0000       1.440325        39.1932 
 106   0.0000       1.471906        40.0526 
 107   0.0000       1.494895        40.6782 
 108   0.0000       1.537422        41.8354 
 109   0.0000       1.564196        42.5639 
 110   0.0000       1.581745        43.0415 
 111   0.0000       1.592512        43.3345 
 112   0.0000       1.651687        44.9447 
 113   0.0000       1.659162        45.1481 
 114   0.0000       1.677627        45.6506 
 115   0.0000       1.708005        46.4772 
 116   0.0000       1.726823        46.9892 
 117   0.0000       1.753110        47.7046 
 118   0.0000       1.765648        48.0457 
 119   0.0000       1.835518        49.9470 
 120   0.0000       1.922458        52.3127 
 121   0.0000       1.964864        53.4667 
 122   0.0000       1.978908        53.8488 
 123   0.0000       2.011633        54.7393 
 124   0.0000       2.044317        55.6287 
 125   0.0000       2.051003        55.8106 
 126   0.0000       2.061492        56.0960 
 127   0.0000       2.072926        56.4072 
 128   0.0000       2.086280        56.7706 
 129   0.0000       2.099405        57.1277 
 130   0.0000       2.112110        57.4734 
 131   0.0000       2.146686        58.4143 
 132   0.0000       2.158415        58.7335 
 133   0.0000       2.176305        59.2203 
 134   0.0000       2.217400        60.3385 
 135   0.0000       2.237026        60.8726 
 136   0.0000       2.260019        61.4983 
 137   0.0000       2.284807        62.1728 
 138   0.0000       2.287488        62.2457 
 139   0.0000       2.330605        63.4190 
 140   0.0000       2.358251        64.1713 
 141   0.0000       2.409511        65.5661 
 142   0.0000       2.434852        66.2557 
 143   0.0000       2.443115        66.4805 
 144   0.0000       2.508520        68.2603 
 145   0.0000       2.519094        68.5480 
 146   0.0000       2.552969        69.4698 
 147   0.0000       2.581345        70.2420 
 148   0.0000       2.602673        70.8223 
 149   0.0000       2.633396        71.6584 
 150   0.0000       2.712391        73.8079 
 151   0.0000       2.718755        73.9811 
 152   0.0000       2.749524        74.8184 
 153   0.0000       2.771061        75.4044 
 154   0.0000       2.810191        76.4692 
 155   0.0000       2.834467        77.1298 
 156   0.0000       2.903902        79.0192 
 157   0.0000       2.937980        79.9465 
 158   0.0000       2.953393        80.3659 
 159   0.0000       2.979075        81.0647 
 160   0.0000       3.017778        82.1179 
 161   0.0000       3.020647        82.1960 
 162   0.0000       3.050238        83.0012 
 163   0.0000       3.116476        84.8036 
 164   0.0000       3.147812        85.6563 
 165   0.0000       3.189401        86.7880 
 166   0.0000       3.238831        88.1331 
 167   0.0000       3.279145        89.2301 
 168   0.0000       3.364728        91.5589 
 169   0.0000       3.440042        93.6083 
 170   0.0000       3.590250        97.6957 
 171   0.0000       3.801581       103.4463 

                    ********************************
                    * MULLIKEN POPULATION ANALYSIS *
                    ********************************

-----------------------
MULLIKEN ATOMIC CHARGES
-----------------------
   0 C :   -0.258776
   1 C :    0.411764
   2 C :   -0.149257
   3 C :   -0.351882
   4 C :   -0.241238
   5 C :   -0.143264
   6 H :    0.211192
   7 H :    0.256387
   8 C :    0.894908
   9 H :    0.209529
  10 N :   -0.956282
  11 O :   -0.639401
  12 O :   -0.771517
  13 H :    0.484746
  14 H :    0.222573
  15 H :    0.447193
  16 H :    0.376816
  17 H :    0.515034
  18 O :   -0.951941
  19 H :    0.433415
Sum of atomic charges:   -0.0000000

--------------------------------
MULLIKEN REDUCED ORBITAL CHARGES
--------------------------------
  0 C s       :     3.147258  s :     3.147258
      pz      :     1.101668  p :     3.068572
      px      :     0.902743
      py      :     1.064161
      dz2     :     0.004561  d :     0.042946
      dxz     :     0.004147
      dyz     :     0.003760
      dx2y2   :     0.015829
      dxy     :     0.014648
  1 C s       :     3.045719  s :     3.045719
      pz      :     0.788694  p :     2.468835
      px      :     0.904810
      py      :     0.775332
      dz2     :     0.005459  d :     0.073683
      dxz     :     0.010267
      dyz     :     0.015893
      dx2y2   :     0.020593
      dxy     :     0.021471
  2 C s       :     3.183047  s :     3.183047
      pz      :     0.880142  p :     2.917385
      px      :     1.101896
      py      :     0.935347
      dz2     :     0.004783  d :     0.048825
      dxz     :     0.003077
      dyz     :     0.009341
      dx2y2   :     0.018089
      dxy     :     0.013535
  3 C s       :     3.195616  s :     3.195616
      pz      :     1.245943  p :     3.111413
      px      :     0.910151
      py      :     0.955319
      dz2     :     0.004553  d :     0.044853
      dxz     :     0.002635
      dyz     :     0.006220
      dx2y2   :     0.018070
      dxy     :     0.013376
  4 C s       :     3.161742  s :     3.161742
      pz      :     1.075564  p :     3.034985
      px      :     0.940588
      py      :     1.018833
      dz2     :     0.004562  d :     0.044511
      dxz     :     0.004990
      dyz     :     0.003434
      dx2y2   :     0.014727
      dxy     :     0.016799
  5 C s       :     3.167543  s :     3.167543
      pz      :     0.885621  p :     2.927389
      px      :     0.973473
      py      :     1.068294
      dz2     :     0.004708  d :     0.048332
      dxz     :     0.008539
      dyz     :     0.004280
      dx2y2   :     0.013333
      dxy     :     0.017472
  6 H s       :     0.788808  s :     0.788808
  7 H s       :     0.743613  s :     0.743613
  8 C s       :     2.889001  s :     2.889001
      pz      :     0.636488  p :     2.075546
      px      :     0.849833
      py      :     0.589225
      dz2     :     0.008671  d :     0.140545
      dxz     :     0.015132
      dyz     :     0.025784
      dx2y2   :     0.054623
      dxy     :     0.036335
  9 H s       :     0.790471  s :     0.790471
 10 N s       :     3.682999  s :     3.682999
      pz      :     1.762687  p :     4.236575
      px      :     1.297992
      py      :     1.175896
      dz2     :     0.002649  d :     0.036708
      dxz     :     0.005821
      dyz     :     0.006537
      dx2y2   :     0.011023
      dxy     :     0.010678
 11 O s       :     3.894736  s :     3.894736
      pz      :     1.522168  p :     4.713727
      px      :     1.652130
      py      :     1.539429
      dz2     :     0.002998  d :     0.030938
      dxz     :     0.005000
      dyz     :     0.006971
      dx2y2   :     0.006236
      dxy     :     0.009733
 12 O s       :     3.900748  s :     3.900748
      pz      :     1.865915  p :     4.838634
      px      :     1.433638
      py      :     1.539081
      dz2     :     0.005010  d :     0.032135
      dxz     :     0.000530
      dyz     :     0.004831
      dx2y2   :     0.016466
      dxy     :     0.005297
 13 H s       :     0.515254  s :     0.515254
 14 H s       :     0.777427  s :     0.777427
 15 H s       :     0.552807  s :     0.552807
 16 H s       :     0.623184  s :     0.623184
 17 H s       :     0.484966  s :     0.484966
 18 O s       :     3.909464  s :     3.909464
      pz      :     1.509907  p :     5.012315
      px      :     1.889162
      py      :     1.613245
      dz2     :     0.016582  d :     0.030162
      dxz     :     0.001098
      dyz     :     0.000948
      dx2y2   :     0.004163
      dxy     :     0.007370
 19 H s       :     0.566585  s :     0.566585


                     *******************************
                     * LOEWDIN POPULATION ANALYSIS *
                     *******************************

----------------------
LOEWDIN ATOMIC CHARGES
----------------------
   0 C :   -0.190963
   1 C :    0.120306
   2 C :   -0.064480
   3 C :   -0.178726
   4 C :   -0.191355
   5 C :   -0.071388
   6 H :    0.142148
   7 H :    0.160802
   8 C :    0.271323
   9 H :    0.140957
  10 N :   -0.439591
  11 O :   -0.348891
  12 O :   -0.372862
  13 H :    0.359756
  14 H :    0.147964
  15 H :    0.283916
  16 H :    0.259773
  17 H :    0.318433
  18 O :   -0.667715
  19 H :    0.320594

-------------------------------
LOEWDIN REDUCED ORBITAL CHARGES
-------------------------------
  0 C s       :     2.906471  s :     2.906471
      pz      :     1.083082  p :     3.197075
      px      :     1.035055
      py      :     1.078938
      dz2     :     0.007196  d :     0.087417
      dxz     :     0.007682
      dyz     :     0.005674
      dx2y2   :     0.034754
      dxy     :     0.032111
  1 C s       :     2.850605  s :     2.850605
      pz      :     0.817956  p :     2.873086
      px      :     1.054322
      py      :     1.000808
      dz2     :     0.009648  d :     0.156002
      dxz     :     0.019979
      dyz     :     0.032257
      dx2y2   :     0.046479
      dxy     :     0.047639
  2 C s       :     2.918495  s :     2.918495
      pz      :     0.881027  p :     3.049142
      px      :     1.090412
      py      :     1.077704
      dz2     :     0.007140  d :     0.096842
      dxz     :     0.004266
      dyz     :     0.018565
      dx2y2   :     0.037453
      dxy     :     0.029419
  3 C s       :     2.866727  s :     2.866727
      pz      :     1.161274  p :     3.212071
      px      :     1.000938
      py      :     1.049859
      dz2     :     0.008035  d :     0.099929
      dxz     :     0.005027
      dyz     :     0.011874
      dx2y2   :     0.042501
      dxy     :     0.032493
  4 C s       :     2.906032  s :     2.906032
      pz      :     1.062033  p :     3.194171
      px      :     1.062088
      py      :     1.070050
      dz2     :     0.007184  d :     0.091152
      dxz     :     0.009256
      dyz     :     0.005658
      dx2y2   :     0.032623
      dxy     :     0.036431
  5 C s       :     2.914927  s :     2.914927
      pz      :     0.894165  p :     3.059009
      px      :     1.081767
      py      :     1.083078
      dz2     :     0.007102  d :     0.097451
      dxz     :     0.016410
      dyz     :     0.008358
      dx2y2   :     0.029050
      dxy     :     0.036532
  6 H s       :     0.857852  s :     0.857852
  7 H s       :     0.839198  s :     0.839198
  8 C s       :     2.837432  s :     2.837432
      pz      :     0.679385  p :     2.589188
      px      :     1.013432
      py      :     0.896371
      dz2     :     0.019104  d :     0.302058
      dxz     :     0.029122
      dyz     :     0.051740
      dx2y2   :     0.122115
      dxy     :     0.079976
  9 H s       :     0.859043  s :     0.859043
 10 N s       :     3.195792  s :     3.195792
      pz      :     1.731045  p :     4.180761
      px      :     1.252828
      py      :     1.196888
      dz2     :     0.003578  d :     0.063038
      dxz     :     0.007200
      dyz     :     0.009757
      dx2y2   :     0.021494
      dxy     :     0.021010
 11 O s       :     3.562068  s :     3.562068
      pz      :     1.496524  p :     4.733877
      px      :     1.663595
      py      :     1.573758
      dz2     :     0.006625  d :     0.052947
      dxz     :     0.005605
      dyz     :     0.008104
      dx2y2   :     0.011322
      dxy     :     0.021290
 12 O s       :     3.535718  s :     3.535718
      pz      :     1.835463  p :     4.786293
      px      :     1.399036
      py      :     1.551794
      dz2     :     0.007332  d :     0.050851
      dxz     :     0.001092
      dyz     :     0.006089
      dx2y2   :     0.025662
      dxy     :     0.010677
 13 H s       :     0.640244  s :     0.640244
 14 H s       :     0.852036  s :     0.852036
 15 H s       :     0.716084  s :     0.716084
 16 H s       :     0.740227  s :     0.740227
 17 H s       :     0.681567  s :     0.681567
 18 O s       :     3.616879  s :     3.616879
      pz      :     1.503115  p :     5.013996
      px      :     1.891434
      py      :     1.619446
      dz2     :     0.020723  d :     0.036840
      dxz     :     0.001236
      dyz     :     0.001437
      dx2y2   :     0.004788
      dxy     :     0.008655
 19 H s       :     0.679406  s :     0.679406


                      *****************************
                      * MAYER POPULATION ANALYSIS *
                      *****************************

  NA   - Mulliken gross atomic population
  ZA   - Total nuclear charge
  QA   - Mulliken gross atomic charge
  VA   - Mayer's total valence
  BVA  - Mayer's bonded valence
  FA   - Mayer's free valence

  ATOM       NA         ZA         QA         VA         BVA        FA
  0 C      6.2588     6.0000    -0.2588     3.8619     3.8619    -0.0000
  1 C      5.5882     6.0000     0.4118     3.7972     3.7972    -0.0000
  2 C      6.1493     6.0000    -0.1493     3.9005     3.9005     0.0000
  3 C      6.3519     6.0000    -0.3519     3.8043     3.8043    -0.0000
  4 C      6.2412     6.0000    -0.2412     3.8754     3.8754    -0.0000
  5 C      6.1433     6.0000    -0.1433     3.8657     3.8657     0.0000
  6 H      0.7888     1.0000     0.2112     0.9259     0.9259    -0.0000
  7 H      0.7436     1.0000     0.2564     0.9089     0.9089     0.0000
  8 C      5.1051     6.0000     0.8949     3.7369     3.7369    -0.0000
  9 H      0.7905     1.0000     0.2095     0.9250     0.9250    -0.0000
 10 N      7.9563     7.0000    -0.9563     2.6727     2.6727     0.0000
 11 O      8.6394     8.0000    -0.6394     1.8424     1.8424     0.0000
 12 O      8.7715     8.0000    -0.7715     1.7065     1.7065     0.0000
 13 H      0.5153     1.0000     0.4847     0.7524     0.7524     0.0000
 14 H      0.7774     1.0000     0.2226     0.9196     0.9196    -0.0000
 15 H      0.5528     1.0000     0.4472     0.7909     0.7909    -0.0000
 16 H      0.6232     1.0000     0.3768     0.8284     0.8284    -0.0000
 17 H      0.4850     1.0000     0.5150     0.6984     0.6984    -0.0000
 18 O      8.9519     8.0000    -0.9519     1.4747     1.4747    -0.0000
 19 H      0.5666     1.0000     0.4334     0.7820     0.7820    -0.0000

  Mayer bond orders larger than 0.100000
B(  0-C ,  1-C ) :   1.3400 B(  0-C ,  2-C ) :   1.5134 B(  0-C ,  9-H ) :   0.9350 
B(  1-C ,  3-C ) :   1.3316 B(  1-C , 10-N ) :   1.0450 B(  2-C ,  4-C ) :   1.3685 
B(  2-C , 14-H ) :   0.9342 B(  3-C ,  5-C ) :   1.3401 B(  3-C ,  8-C ) :   1.0530 
B(  4-C ,  5-C ) :   1.5106 B(  4-C ,  6-H ) :   0.9387 B(  5-C ,  7-H ) :   0.9137 
B(  8-C , 11-O ) :   1.7091 B(  8-C , 12-O ) :   0.9602 B( 10-N , 15-H ) :   0.7454 
B( 10-N , 16-H ) :   0.8261 B( 12-O , 13-H ) :   0.7230 B( 17-H , 18-O ) :   0.6677 
B( 18-O , 19-H ) :   0.7836 

-------
TIMINGS
-------

Total SCF time: 0 days 0 hours 0 min 12 sec 

Total time                  ....      12.856 sec
Sum of individual times     ....      12.674 sec  ( 98.6%)

Fock matrix formation       ....      12.401 sec  ( 96.5%)
Diagonalization             ....       0.028 sec  (  0.2%)
Density matrix formation    ....       0.002 sec  (  0.0%)
Population analysis         ....       0.006 sec  (  0.0%)
Initial guess               ....       0.090 sec  (  0.7%)
Orbital Transformation      ....       0.000 sec  (  0.0%)
Orbital Orthonormalization  ....       0.000 sec  (  0.0%)
DIIS solution               ....       0.023 sec  (  0.2%)
SOSCF solution              ....       0.019 sec  (  0.1%)

Maximum memory used throughout the entire SCF-calculation: 229.1 MB

-------------------------   --------------------
FINAL SINGLE POINT ENERGY      -549.351839056568
-------------------------   --------------------

Storing actual gbw-file in scan_c4_h.001.gbw ... done

                            ***************************************
                            *     ORCA property calculations      *
                            ***************************************

                                    ---------------------
                                    Active property flags
                                    ---------------------
   (+) Dipole Moment


------------------------------------------------------------------------------
                       ORCA ELECTRIC PROPERTIES CALCULATION
------------------------------------------------------------------------------

Dipole Moment Calculation                       ... on
Quadrupole Moment Calculation                   ... off
Polarizability Calculation                      ... off
GBWName                                         ... scan_c4_h.gbw
Electron density                                ... scan_c4_h.scfp
The origin for moment calculation is the CENTER OF MASS  = ( 3.653582,  2.014083  0.605334)

-------------
DIPOLE MOMENT
-------------
                                X             Y             Z
Electronic contribution:      3.53293       0.39449      -2.74309
Nuclear contribution   :     -3.94062       0.14911       2.38589
                        -----------------------------------------
Total Dipole Moment    :     -0.40769       0.54360      -0.35720
                        -----------------------------------------
Magnitude (a.u.)       :      0.76766
Magnitude (Debye)      :      1.95123



--------------------
Rotational spectrum 
--------------------
 
Rotational constants in cm-1:     0.047177     0.030636     0.026215 
Rotational constants in MHz :  1414.328278   918.443761   785.908901 

 Dipole components along the rotational axes: 
x,y,z [a.u.] :    -0.384178    -0.523815    -0.409055 
x,y,z [Debye]:    -0.976503    -1.331431    -1.039735 

 

         *************************************************************
                                TRAJECTORY STEP   2
                  B  :   2.10000000
         *************************************************************
---------------------------------
CARTESIAN COORDINATES (ANGSTROEM)
---------------------------------
  C      0.000000    0.000000    0.000000
  C      1.410409    0.000000    0.000000
  C     -0.724320    1.183586    0.000000
  C      2.073292    1.253208   -0.044708
  C     -0.064411    2.419058   -0.039207
  C      1.323048    2.445080   -0.047743
  H     -0.629466    3.347001   -0.041088
  H      1.852429    3.392160   -0.071804
  C      3.545723    1.317753    0.000066
  H     -0.520004   -0.956528    0.019731
  N      2.085359   -1.205080   -0.068653
  O      4.312423    0.364488    0.139874
  O      4.032585    2.583306   -0.125203
  H      5.005653    2.480252   -0.067898
  H     -1.811547    1.143588    0.009074
  H      3.068328   -1.165755    0.178380
  H      1.581522   -2.004078    0.295737
  H      2.073292    1.328078    2.053956
  O      2.073292    1.362205    3.010548
  H      2.506338    2.189453    3.221176

----------------------------
CARTESIAN COORDINATES (A.U.)
----------------------------
  NO LB      ZA    FRAG     MASS         X           Y           Z
   0 C     6.0000    0    12.011    0.000000    0.000000    0.000000
   1 C     6.0000    0    12.011    2.665286    0.000000    0.000000
   2 C     6.0000    0    12.011   -1.368767    2.236654    0.000000
   3 C     6.0000    0    12.011    3.917954    2.368220   -0.084487
   4 C     6.0000    0    12.011   -0.121718    4.571357   -0.074090
   5 C     6.0000    0    12.011    2.500199    4.620531   -0.090221
   6 H     1.0000    0     1.008   -1.189519    6.324915   -0.077645
   7 H     1.0000    0     1.008    3.500584    6.410253   -0.135689
   8 C     6.0000    0    12.011    6.700446    2.490192    0.000125
   9 H     1.0000    0     1.008   -0.982664   -1.807577    0.037287
  10 N     7.0000    0    14.007    3.940757   -2.277270   -0.129736
  11 O     8.0000    0    15.999    8.149298    0.688782    0.264323
  12 O     8.0000    0    15.999    7.620482    4.881740   -0.236599
  13 H     1.0000    0     1.008    9.459313    4.686996   -0.128308
  14 H     1.0000    0     1.008   -3.423328    2.161068    0.017147
  15 H     1.0000    0     1.008    5.798299   -2.202959    0.337089
  16 H     1.0000    0     1.008    2.988644   -3.787158    0.558863
  17 H     1.0000    0     1.008    3.917954    2.509704    3.881415
  18 O     8.0000    0    15.999    3.917954    2.574194    5.689111
  19 H     1.0000    0     1.008    4.736292    4.137466    6.087140

--------------------------------
INTERNAL COORDINATES (ANGSTROEM)
--------------------------------
 C      0   0   0     0.000000000000     0.00000000     0.00000000
 C      1   0   0     1.410408792387     0.00000000     0.00000000
 C      1   2   0     1.387629674561   121.46540976     0.00000000
 C      2   1   3     1.418429715822   117.86149259   357.95682680
 C      3   1   2     1.401216550379   120.41314464     1.85928728
 C      5   3   1     1.387728922094   119.18088952   358.56672225
 H      5   3   1     1.086448109445   120.54301814   179.88964476
 H      6   5   3     1.085257810950   120.27815199   180.37435074
 C      4   2   1     1.474525319058   120.29082617   177.88235003
 H      1   2   3     1.088916721971   118.52499331   181.18172947
 N      2   1   3     1.382927159506   119.21307977   183.26061362
 O      9   4   2     1.231295327431   126.25299933   356.29999903
 O      9   4   2     1.361745810407   113.26023456   176.60892359
 H     13   9   4     0.980186199946   104.58659711   179.32147663
 H      3   1   2     1.088000665320   119.35735619   180.54826763
 H     11   2   1     1.014297666448   115.28426224   195.45494424
 H     11   2   1     1.012437828384   115.27373933   333.44819984
 H      4   2   1     2.100000000000    90.00000000    90.00000000
 O     18   4   2     0.957200000000   180.00000000    90.00000000
 H     19   4   2     0.957200000000   104.52000000   180.00000000

---------------------------
INTERNAL COORDINATES (A.U.)
---------------------------
 C      0   0   0     0.000000000000     0.00000000     0.00000000
 C      1   0   0     2.665286354486     0.00000000     0.00000000
 C      1   2   0     2.622240060223   121.46540976     0.00000000
 C      2   1   3     2.680443703119   117.86149259   357.95682680
 C      3   1   2     2.647915534534   120.41314464     1.85928728
 C      5   3   1     2.622427610879   119.18088952   358.56672225
 H      5   3   1     2.053089385568   120.54301814   179.88964476
 H      6   5   3     2.050840047394   120.27815199   180.37435074
 C      4   2   1     2.786449030552   120.29082617   177.88235003
 H      1   2   3     2.057754387172   118.52499331   181.18172947
 N      2   1   3     2.613353594628   119.21307977   183.26061362
 O      9   4   2     2.326810958821   126.25299933   356.29999903
 O      9   4   2     2.573326645684   113.26023456   176.60892359
 H     13   9   4     1.852283478147   104.58659711   179.32147663
 H      3   1   2     2.056023290979   119.35735619   180.54826763
 H     11   2   1     1.916744807862   115.28426224   195.45494424
 H     11   2   1     1.913230223268   115.27373933   333.44819984
 H      4   2   1     3.968424881235    90.00000000    90.00000000
 O     18   4   2     1.808845855389   180.00000000    90.00000000
 H     19   4   2     1.808845855389   104.52000000   180.00000000



           ************************************************************
           *        Program running with 4 parallel MPI-processes     *
           *              working on a common directory               *
           ************************************************************
------------------------------------------------------------------------------
                   ___                                                        
                  /   \      - P O W E R E D   B Y -                         
                 /     \                                                     
                 |  |  |   _    _      __       _____    __    __             
                 |  |  |  | |  | |    /  \     |  _  \  |  |  /  |          
                  \  \/   | |  | |   /    \    | | | |  |  | /  /          
                 / \  \   | |__| |  /  /\  \   | |_| |  |  |/  /          
                |  |  |   |  __  | /  /__\  \  |    /   |      \           
                |  |  |   | |  | | |   __   |  |    \   |  |\   \          
                \     /   | |  | | |  |  |  |  | |\  \  |  | \   \       
                 \___/    |_|  |_| |__|  |__|  |_| \__\ |__|  \__/        
                                                                              
                      - O R C A' S   B I G   F R I E N D -                    
                                      &                                       
                       - I N T E G R A L  F E E D E R -                       
                                                                              
 v1 FN, 2020, v2 2021                                                         
------------------------------------------------------------------------------


Reading SHARK input file scan_c4_h.SHARKINP.tmp ... ok
----------------------
SHARK INTEGRAL PACKAGE
----------------------

Number of atoms                             ...     20
Number of basis functions                   ...    172
Number of shells                            ...     84
Maximum angular momentum                    ...      2
Integral batch strategy                     ... SHARK/LIBINT Hybrid
RI-J (if used) integral strategy            ... SPLIT-RIJ (Revised 2003 algorithm where possible)
Printlevel                                  ...      1
Contraction scheme used                     ... SEGMENTED contraction
Coulomb Range Separation                    ... NOT USED
Exchange Range Separation                   ... NOT USED
Finite Nucleus Model                        ... NOT USED
Auxiliary Coulomb fitting basis             ... NOT available
Auxiliary J/K fitting basis                 ... NOT available
Auxiliary Correlation fitting basis         ... NOT available
Auxiliary 'external' fitting basis          ... NOT available
Integral threshold                          ...     1.000000e-10
Primitive cut-off                           ...     1.000000e-11
Primitive pair pre-selection threshold      ...     1.000000e-11

Calculating pre-screening integrals         ... done (  0.0 sec) Dimension = 84
Organizing shell pair data                  ... done (  0.0 sec)
Shell pair information
Total number of shell pairs                 ...      3570
Shell pairs after pre-screening             ...      3248
Total number of primitive shell pairs       ...     20559
Primitive shell pairs kept                  ...     11467
          la=0 lb=0:   1152 shell pairs
          la=1 lb=0:   1054 shell pairs
          la=1 lb=1:    249 shell pairs
          la=2 lb=0:    493 shell pairs
          la=2 lb=1:    238 shell pairs
          la=2 lb=2:     62 shell pairs

Calculating one electron integrals          ... done (  0.0 sec)
Calculating Nuclear repulsion               ... done (  0.0 sec) ENN=    613.677014599386 Eh

SHARK setup successfully completed in   0.1 seconds

Maximum memory used throughout the entire GTOINT-calculation: 11.0 MB


           ************************************************************
           *        Program running with 4 parallel MPI-processes     *
           *              working on a common directory               *
           ************************************************************

Diagonalization of the overlap matrix:
Smallest eigenvalue                        ... 4.259e-04
Time for diagonalization                   ...    0.003 sec
Threshold for overlap eigenvalues          ... 1.000e-08
Number of eigenvalues below threshold      ... 0
Time for construction of square roots      ...    0.001 sec
Total time needed                          ...    0.005 sec

--------------
SCF ITERATIONS
--------------
ITER       Energy         Delta-E        Max-DP      RMS-DP      [F,P]     Damp
               ***  Starting incremental Fock matrix formation  ***
                      *** Initiating the SOSCF procedure ***
                      *** Re-Reading the Fockian *** 
                      *** Removing any level shift *** 
ITER      Energy       Delta-E        Grad      Rot      Max-DP    RMS-DP
  0   -549.35434702 -549.3543470242  0.002155  0.002155  0.013795  0.000263
               *** Restarting incremental Fock matrix formation ***
  1   -549.35449802  -0.0001509948  0.000450  0.000804  0.004051  0.000081
  2   -549.35451460  -0.0000165857  0.000157  0.000417  0.001650  0.000033
  3   -549.35451613  -0.0000015234  0.000065  0.000105  0.000195  0.000006
                 **** Energy Check signals convergence ****
              ***Rediagonalizing the Fockian in SOSCF/NRSCF***

               *****************************************************
               *                     SUCCESS                       *
               *           SCF CONVERGED AFTER   4 CYCLES          *
               *****************************************************

Total Energy       :         -549.35451640 Eh          -14948.69637 eV
  Last Energy change         ...   -2.6815e-07  Tolerance :   1.0000e-06
  Last MAX-Density change    ...    1.3981e-04  Tolerance :   1.0000e-05
             **** THE GBW FILE WAS UPDATED (scan_c4_h.gbw) ****
             **** DENSITY scan_c4_h.scfp WAS UPDATED ****
             **** ENERGY FILE WAS UPDATED (scan_c4_h.en.tmp) ****
             **** THE GBW FILE WAS UPDATED (scan_c4_h.gbw) ****
             **** DENSITY scan_c4_h.scfp WAS UPDATED ****
Total SCF time: 0 days 0 hours 0 min 5 sec 

Maximum memory used throughout the entire SCF-calculation: 228.9 MB

-------------------------   --------------------
FINAL SINGLE POINT ENERGY      -549.354516396222
-------------------------   --------------------

Storing actual gbw-file in scan_c4_h.002.gbw ... done

                            ***************************************
                            *     ORCA property calculations      *
                            ***************************************

                                    ---------------------
                                    Active property flags
                                    ---------------------
   (+) Dipole Moment


------------------------------------------------------------------------------
                       ORCA ELECTRIC PROPERTIES CALCULATION
------------------------------------------------------------------------------

Dipole Moment Calculation                       ... on
Quadrupole Moment Calculation                   ... off
Polarizability Calculation                      ... off
GBWName                                         ... scan_c4_h.gbw
Electron density                                ... scan_c4_h.scfp
The origin for moment calculation is the CENTER OF MASS  = ( 3.653582,  2.014865  0.627262)

-------------
DIPOLE MOMENT
-------------
                                X             Y             Z
Electronic contribution:      3.54441       0.39962      -2.82560
Nuclear contribution   :     -3.94062       0.15233       2.47633
                        -----------------------------------------
Total Dipole Moment    :     -0.39621       0.55196      -0.34927
                        -----------------------------------------
Magnitude (a.u.)       :      0.76395
Magnitude (Debye)      :      1.94182



--------------------
Rotational spectrum 
--------------------
 
Rotational constants in cm-1:     0.045976     0.030144     0.026197 
Rotational constants in MHz :  1378.330780   903.703147   785.358632 

 Dipole components along the rotational axes: 
x,y,z [a.u.] :    -0.372506     0.523533    -0.413253 
x,y,z [Debye]:    -0.946835     1.330716    -1.050407 

 

         *************************************************************
                                TRAJECTORY STEP   3
                  B  :   2.20000000
         *************************************************************
---------------------------------
CARTESIAN COORDINATES (ANGSTROEM)
---------------------------------
  C      0.000000    0.000000    0.000000
  C      1.410409    0.000000    0.000000
  C     -0.724320    1.183586    0.000000
  C      2.073292    1.253208   -0.044708
  C     -0.064411    2.419058   -0.039207
  C      1.323048    2.445080   -0.047743
  H     -0.629466    3.347001   -0.041088
  H      1.852429    3.392160   -0.071804
  C      3.545723    1.317753    0.000066
  H     -0.520004   -0.956528    0.019731
  N      2.085359   -1.205080   -0.068653
  O      4.312423    0.364488    0.139874
  O      4.032585    2.583306   -0.125203
  H      5.005653    2.480252   -0.067898
  H     -1.811547    1.143588    0.009074
  H      3.068328   -1.165755    0.178380
  H      1.581522   -2.004078    0.295737
  H      2.073292    1.331644    2.153893
  O      2.073292    1.365770    3.110484
  H      2.506338    2.193018    3.321112

----------------------------
CARTESIAN COORDINATES (A.U.)
----------------------------
  NO LB      ZA    FRAG     MASS         X           Y           Z
   0 C     6.0000    0    12.011    0.000000    0.000000    0.000000
   1 C     6.0000    0    12.011    2.665286    0.000000    0.000000
   2 C     6.0000    0    12.011   -1.368767    2.236654    0.000000
   3 C     6.0000    0    12.011    3.917954    2.368220   -0.084487
   4 C     6.0000    0    12.011   -0.121718    4.571357   -0.074090
   5 C     6.0000    0    12.011    2.500199    4.620531   -0.090221
   6 H     1.0000    0     1.008   -1.189519    6.324915   -0.077645
   7 H     1.0000    0     1.008    3.500584    6.410253   -0.135689
   8 C     6.0000    0    12.011    6.700446    2.490192    0.000125
   9 H     1.0000    0     1.008   -0.982664   -1.807577    0.037287
  10 N     7.0000    0    14.007    3.940757   -2.277270   -0.129736
  11 O     8.0000    0    15.999    8.149298    0.688782    0.264323
  12 O     8.0000    0    15.999    7.620482    4.881740   -0.236599
  13 H     1.0000    0     1.008    9.459313    4.686996   -0.128308
  14 H     1.0000    0     1.008   -3.423328    2.161068    0.017147
  15 H     1.0000    0     1.008    5.798299   -2.202959    0.337089
  16 H     1.0000    0     1.008    2.988644   -3.787158    0.558863
  17 H     1.0000    0     1.008    3.917954    2.516442    4.070268
  18 O     8.0000    0    15.999    3.917954    2.580932    5.877964
  19 H     1.0000    0     1.008    4.736292    4.144203    6.275992

--------------------------------
INTERNAL COORDINATES (ANGSTROEM)
--------------------------------
 C      0   0   0     0.000000000000     0.00000000     0.00000000
 C      1   0   0     1.410408792387     0.00000000     0.00000000
 C      1   2   0     1.387629674561   121.46540976     0.00000000
 C      2   1   3     1.418429715822   117.86149259   357.95682680
 C      3   1   2     1.401216550379   120.41314464     1.85928728
 C      5   3   1     1.387728922094   119.18088952   358.56672225
 H      5   3   1     1.086448109445   120.54301814   179.88964476
 H      6   5   3     1.085257810950   120.27815199   180.37435074
 C      4   2   1     1.474525319058   120.29082617   177.88235003
 H      1   2   3     1.088916721971   118.52499331   181.18172947
 N      2   1   3     1.382927159506   119.21307977   183.26061362
 O      9   4   2     1.231295327431   126.25299933   356.29999903
 O      9   4   2     1.361745810407   113.26023456   176.60892359
 H     13   9   4     0.980186199946   104.58659711   179.32147663
 H      3   1   2     1.088000665320   119.35735619   180.54826763
 H     11   2   1     1.014297666448   115.28426224   195.45494424
 H     11   2   1     1.012437828384   115.27373933   333.44819984
 H      4   2   1     2.200000000000    90.00000000    90.00000000
 O     18   4   2     0.957200000000   180.00000000    90.00000000
 H     19   4   2     0.957200000000   104.52000000   180.00000000

---------------------------
INTERNAL COORDINATES (A.U.)
---------------------------
 C      0   0   0     0.000000000000     0.00000000     0.00000000
 C      1   0   0     2.665286354486     0.00000000     0.00000000
 C      1   2   0     2.622240060223   121.46540976     0.00000000
 C      2   1   3     2.680443703119   117.86149259   357.95682680
 C      3   1   2     2.647915534534   120.41314464     1.85928728
 C      5   3   1     2.622427610879   119.18088952   358.56672225
 H      5   3   1     2.053089385568   120.54301814   179.88964476
 H      6   5   3     2.050840047394   120.27815199   180.37435074
 C      4   2   1     2.786449030552   120.29082617   177.88235003
 H      1   2   3     2.057754387172   118.52499331   181.18172947
 N      2   1   3     2.613353594628   119.21307977   183.26061362
 O      9   4   2     2.326810958821   126.25299933   356.29999903
 O      9   4   2     2.573326645684   113.26023456   176.60892359
 H     13   9   4     1.852283478147   104.58659711   179.32147663
 H      3   1   2     2.056023290979   119.35735619   180.54826763
 H     11   2   1     1.916744807862   115.28426224   195.45494424
 H     11   2   1     1.913230223268   115.27373933   333.44819984
 H      4   2   1     4.157397494627    90.00000000    90.00000000
 O     18   4   2     1.808845855389   180.00000000    90.00000000
 H     19   4   2     1.808845855389   104.52000000   180.00000000



           ************************************************************
           *        Program running with 4 parallel MPI-processes     *
           *              working on a common directory               *
           ************************************************************
------------------------------------------------------------------------------
                   ___                                                        
                  /   \      - P O W E R E D   B Y -                         
                 /     \                                                     
                 |  |  |   _    _      __       _____    __    __             
                 |  |  |  | |  | |    /  \     |  _  \  |  |  /  |          
                  \  \/   | |  | |   /    \    | | | |  |  | /  /          
                 / \  \   | |__| |  /  /\  \   | |_| |  |  |/  /          
                |  |  |   |  __  | /  /__\  \  |    /   |      \           
                |  |  |   | |  | | |   __   |  |    \   |  |\   \          
                \     /   | |  | | |  |  |  |  | |\  \  |  | \   \       
                 \___/    |_|  |_| |__|  |__|  |_| \__\ |__|  \__/        
                                                                              
                      - O R C A' S   B I G   F R I E N D -                    
                                      &                                       
                       - I N T E G R A L  F E E D E R -                       
                                                                              
 v1 FN, 2020, v2 2021                                                         
------------------------------------------------------------------------------


Reading SHARK input file scan_c4_h.SHARKINP.tmp ... ok
----------------------
SHARK INTEGRAL PACKAGE
----------------------

Number of atoms                             ...     20
Number of basis functions                   ...    172
Number of shells                            ...     84
Maximum angular momentum                    ...      2
Integral batch strategy                     ... SHARK/LIBINT Hybrid
RI-J (if used) integral strategy            ... SPLIT-RIJ (Revised 2003 algorithm where possible)
Printlevel                                  ...      1
Contraction scheme used                     ... SEGMENTED contraction
Coulomb Range Separation                    ... NOT USED
Exchange Range Separation                   ... NOT USED
Finite Nucleus Model                        ... NOT USED
Auxiliary Coulomb fitting basis             ... NOT available
Auxiliary J/K fitting basis                 ... NOT available
Auxiliary Correlation fitting basis         ... NOT available
Auxiliary 'external' fitting basis          ... NOT available
Integral threshold                          ...     1.000000e-10
Primitive cut-off                           ...     1.000000e-11
Primitive pair pre-selection threshold      ...     1.000000e-11

Calculating pre-screening integrals         ... done (  0.0 sec) Dimension = 84
Organizing shell pair data                  ... done (  0.0 sec)
Shell pair information
Total number of shell pairs                 ...      3570
Shell pairs after pre-screening             ...      3240
Total number of primitive shell pairs       ...     20559
Primitive shell pairs kept                  ...     11421
          la=0 lb=0:   1149 shell pairs
          la=1 lb=0:   1053 shell pairs
          la=1 lb=1:    248 shell pairs
          la=2 lb=0:    490 shell pairs
          la=2 lb=1:    238 shell pairs
          la=2 lb=2:     62 shell pairs

Calculating one electron integrals          ... done (  0.0 sec)
Calculating Nuclear repulsion               ... done (  0.0 sec) ENN=    611.302556160281 Eh

SHARK setup successfully completed in   0.1 seconds

Maximum memory used throughout the entire GTOINT-calculation: 11.0 MB


           ************************************************************
           *        Program running with 4 parallel MPI-processes     *
           *              working on a common directory               *
           ************************************************************

Diagonalization of the overlap matrix:
Smallest eigenvalue                        ... 4.272e-04
Time for diagonalization                   ...    0.003 sec
Threshold for overlap eigenvalues          ... 1.000e-08
Number of eigenvalues below threshold      ... 0
Time for construction of square roots      ...    0.002 sec
Total time needed                          ...    0.006 sec

--------------
SCF ITERATIONS
--------------
ITER       Energy         Delta-E        Max-DP      RMS-DP      [F,P]     Damp
               ***  Starting incremental Fock matrix formation  ***
                      *** Initiating the SOSCF procedure ***
                      *** Re-Reading the Fockian *** 
                      *** Removing any level shift *** 
ITER      Energy       Delta-E        Grad      Rot      Max-DP    RMS-DP
  0   -549.35625094 -549.3562509404  0.001548  0.001548  0.011197  0.000235
               *** Restarting incremental Fock matrix formation ***
  1   -549.35636297  -0.0001120330  0.000388  0.000690  0.003299  0.000070
  2   -549.35637501  -0.0000120330  0.000127  0.000393  0.001304  0.000028
  3   -549.35637610  -0.0000010949  0.000060  0.000096  0.000161  0.000006
                 **** Energy Check signals convergence ****
              ***Rediagonalizing the Fockian in SOSCF/NRSCF***

               *****************************************************
               *                     SUCCESS                       *
               *           SCF CONVERGED AFTER   4 CYCLES          *
               *****************************************************

Total Energy       :         -549.35637631 Eh          -14948.74698 eV
  Last Energy change         ...   -2.0884e-07  Tolerance :   1.0000e-06
  Last MAX-Density change    ...    1.1294e-04  Tolerance :   1.0000e-05
             **** THE GBW FILE WAS UPDATED (scan_c4_h.gbw) ****
             **** DENSITY scan_c4_h.scfp WAS UPDATED ****
             **** ENERGY FILE WAS UPDATED (scan_c4_h.en.tmp) ****
             **** THE GBW FILE WAS UPDATED (scan_c4_h.gbw) ****
             **** DENSITY scan_c4_h.scfp WAS UPDATED ****
Total SCF time: 0 days 0 hours 0 min 5 sec 

Maximum memory used throughout the entire SCF-calculation: 228.9 MB

-------------------------   --------------------
FINAL SINGLE POINT ENERGY      -549.356376310096
-------------------------   --------------------

Storing actual gbw-file in scan_c4_h.003.gbw ... done

                            ***************************************
[...]

-------------
DIPOLE MOMENT
-------------
                                X             Y             Z
Electronic contribution:      3.69542       0.27391      -9.72592
Nuclear contribution   :     -3.94062       0.40399       9.53050
                        -----------------------------------------
Total Dipole Moment    :     -0.24520       0.67790      -0.19542
                        -----------------------------------------
Magnitude (a.u.)       :      0.74690
Magnitude (Debye)      :      1.89847



--------------------
Rotational spectrum 
--------------------
 
Rotational constants in cm-1:     0.026429     0.008101     0.007406 
Rotational constants in MHz :   792.323687   242.858849   222.036177 

 Dipole components along the rotational axes: 
x,y,z [a.u.] :    -0.155801     0.201633    -0.702088 
x,y,z [Debye]:    -0.396015     0.512511    -1.784565 

 

         *************************************************************
                                TRAJECTORY STEP  81
                  B  :  10.00000000
         *************************************************************
---------------------------------
CARTESIAN COORDINATES (ANGSTROEM)
---------------------------------
  C      0.000000    0.000000    0.000000
  C      1.410409    0.000000    0.000000
  C     -0.724320    1.183586    0.000000
  C      2.073292    1.253208   -0.044708
  C     -0.064411    2.419058   -0.039207
  C      1.323048    2.445080   -0.047743
  H     -0.629466    3.347001   -0.041088
  H      1.852429    3.392160   -0.071804
  C      3.545723    1.317753    0.000066
  H     -0.520004   -0.956528    0.019731
  N      2.085359   -1.205080   -0.068653
  O      4.312423    0.364488    0.139874
  O      4.032585    2.583306   -0.125203
  H      5.005653    2.480252   -0.067898
  H     -1.811547    1.143588    0.009074
  H      3.068328   -1.165755    0.178380
  H      1.581522   -2.004078    0.295737
  H      2.073292    1.609733    9.948934
  O      2.073292    1.643860   10.905525
  H      2.506338    2.471108   11.116153

----------------------------
CARTESIAN COORDINATES (A.U.)
----------------------------
  NO LB      ZA    FRAG     MASS         X           Y           Z
   0 C     6.0000    0    12.011    0.000000    0.000000    0.000000
   1 C     6.0000    0    12.011    2.665286    0.000000    0.000000
   2 C     6.0000    0    12.011   -1.368767    2.236654    0.000000
   3 C     6.0000    0    12.011    3.917954    2.368220   -0.084487
   4 C     6.0000    0    12.011   -0.121718    4.571357   -0.074090
   5 C     6.0000    0    12.011    2.500199    4.620531   -0.090221
   6 H     1.0000    0     1.008   -1.189519    6.324915   -0.077645
   7 H     1.0000    0     1.008    3.500584    6.410253   -0.135689
   8 C     6.0000    0    12.011    6.700446    2.490192    0.000125
   9 H     1.0000    0     1.008   -0.982664   -1.807577    0.037287
  10 N     7.0000    0    14.007    3.940757   -2.277270   -0.129736
  11 O     8.0000    0    15.999    8.149298    0.688782    0.264323
  12 O     8.0000    0    15.999    7.620482    4.881740   -0.236599
  13 H     1.0000    0     1.008    9.459313    4.686996   -0.128308
  14 H     1.0000    0     1.008   -3.423328    2.161068    0.017147
  15 H     1.0000    0     1.008    5.798299   -2.202959    0.337089
  16 H     1.0000    0     1.008    2.988644   -3.787158    0.558863
  17 H     1.0000    0     1.008    3.917954    3.041955   18.800761
  18 O     8.0000    0    15.999    3.917954    3.106445   20.608456
  19 H     1.0000    0     1.008    4.736292    4.669717   21.006485

--------------------------------
INTERNAL COORDINATES (ANGSTROEM)
--------------------------------
 C      0   0   0     0.000000000000     0.00000000     0.00000000
 C      1   0   0     1.410408792387     0.00000000     0.00000000
 C      1   2   0     1.387629674561   121.46540976     0.00000000
 C      2   1   3     1.418429715822   117.86149259   357.95682680
 C      3   1   2     1.401216550379   120.41314464     1.85928728
 C      5   3   1     1.387728922094   119.18088952   358.56672225
 H      5   3   1     1.086448109445   120.54301814   179.88964476
 H      6   5   3     1.085257810950   120.27815199   180.37435074
 C      4   2   1     1.474525319058   120.29082617   177.88235003
 H      1   2   3     1.088916721971   118.52499331   181.18172947
 N      2   1   3     1.382927159506   119.21307977   183.26061362
 O      9   4   2     1.231295327431   126.25299933   356.29999903
 O      9   4   2     1.361745810407   113.26023456   176.60892359
 H     13   9   4     0.980186199946   104.58659711   179.32147663
 H      3   1   2     1.088000665320   119.35735619   180.54826763
 H     11   2   1     1.014297666448   115.28426224   195.45494424
 H     11   2   1     1.012437828384   115.27373933   333.44819984
 H      4   2   1    10.000000000000    90.00000000    90.00000000
 O     18   4   2     0.957200000000   180.00000000    90.00000000
 H     19   4   2     0.957200000000   104.52000000   180.00000000

---------------------------
INTERNAL COORDINATES (A.U.)
---------------------------
 C      0   0   0     0.000000000000     0.00000000     0.00000000
 C      1   0   0     2.665286354486     0.00000000     0.00000000
 C      1   2   0     2.622240060223   121.46540976     0.00000000
 C      2   1   3     2.680443703119   117.86149259   357.95682680
 C      3   1   2     2.647915534534   120.41314464     1.85928728
 C      5   3   1     2.622427610879   119.18088952   358.56672225
 H      5   3   1     2.053089385568   120.54301814   179.88964476
 H      6   5   3     2.050840047394   120.27815199   180.37435074
 C      4   2   1     2.786449030552   120.29082617   177.88235003
 H      1   2   3     2.057754387172   118.52499331   181.18172947
 N      2   1   3     2.613353594628   119.21307977   183.26061362
 O      9   4   2     2.326810958821   126.25299933   356.29999903
 O      9   4   2     2.573326645684   113.26023456   176.60892359
 H     13   9   4     1.852283478147   104.58659711   179.32147663
 H      3   1   2     2.056023290979   119.35735619   180.54826763
 H     11   2   1     1.916744807862   115.28426224   195.45494424
 H     11   2   1     1.913230223268   115.27373933   333.44819984
 H      4   2   1    18.897261339213    90.00000000    90.00000000
 O     18   4   2     1.808845855389   180.00000000    90.00000000
 H     19   4   2     1.808845855389   104.52000000   180.00000000



           ************************************************************
           *        Program running with 4 parallel MPI-processes     *
           *              working on a common directory               *
           ************************************************************
------------------------------------------------------------------------------
                   ___                                                        
                  /   \      - P O W E R E D   B Y -                         
                 /     \                                                     
                 |  |  |   _    _      __       _____    __    __             
                 |  |  |  | |  | |    /  \     |  _  \  |  |  /  |          
                  \  \/   | |  | |   /    \    | | | |  |  | /  /          
                 / \  \   | |__| |  /  /\  \   | |_| |  |  |/  /          
                |  |  |   |  __  | /  /__\  \  |    /   |      \           
                |  |  |   | |  | | |   __   |  |    \   |  |\   \          
                \     /   | |  | | |  |  |  |  | |\  \  |  | \   \       
                 \___/    |_|  |_| |__|  |__|  |_| \__\ |__|  \__/        
                                                                              
                      - O R C A' S   B I G   F R I E N D -                    
                                      &                                       
                       - I N T E G R A L  F E E D E R -                       
                                                                              
 v1 FN, 2020, v2 2021                                                         
------------------------------------------------------------------------------


Reading SHARK input file scan_c4_h.SHARKINP.tmp ... ok
----------------------
SHARK INTEGRAL PACKAGE
----------------------

Number of atoms                             ...     20
Number of basis functions                   ...    172
Number of shells                            ...     84
Maximum angular momentum                    ...      2
Integral batch strategy                     ... SHARK/LIBINT Hybrid
RI-J (if used) integral strategy            ... SPLIT-RIJ (Revised 2003 algorithm where possible)
Printlevel                                  ...      1
Contraction scheme used                     ... SEGMENTED contraction
Coulomb Range Separation                    ... NOT USED
Exchange Range Separation                   ... NOT USED
Finite Nucleus Model                        ... NOT USED
Auxiliary Coulomb fitting basis             ... NOT available
Auxiliary J/K fitting basis                 ... NOT available
Auxiliary Correlation fitting basis         ... NOT available
Auxiliary 'external' fitting basis          ... NOT available
Integral threshold                          ...     1.000000e-10
Primitive cut-off                           ...     1.000000e-11
Primitive pair pre-selection threshold      ...     1.000000e-11

Calculating pre-screening integrals         ... done (  0.0 sec) Dimension = 84
Organizing shell pair data                  ... done (  0.0 sec)
Shell pair information
Total number of shell pairs                 ...      3570
Shell pairs after pre-screening             ...      2599
Total number of primitive shell pairs       ...     20559
Primitive shell pairs kept                  ...      9742
          la=0 lb=0:    896 shell pairs
          la=1 lb=0:    849 shell pairs
          la=1 lb=1:    209 shell pairs
          la=2 lb=0:    395 shell pairs
          la=2 lb=1:    198 shell pairs
          la=2 lb=2:     52 shell pairs

Calculating one electron integrals          ... done (  0.0 sec)
Calculating Nuclear repulsion               ... done (  0.0 sec) ENN=    543.362791625870 Eh

SHARK setup successfully completed in   0.1 seconds

Maximum memory used throughout the entire GTOINT-calculation: 10.4 MB


           ************************************************************
           *        Program running with 4 parallel MPI-processes     *
           *              working on a common directory               *
           ************************************************************

Diagonalization of the overlap matrix:
Smallest eigenvalue                        ... 4.305e-04
Time for diagonalization                   ...    0.003 sec
Threshold for overlap eigenvalues          ... 1.000e-08
Number of eigenvalues below threshold      ... 0
Time for construction of square roots      ...    0.001 sec
Total time needed                          ...    0.004 sec

--------------
SCF ITERATIONS
--------------
ITER       Energy         Delta-E        Max-DP      RMS-DP      [F,P]     Damp
               ***  Starting incremental Fock matrix formation  ***
                      *** Initiating the SOSCF procedure ***
                      *** Re-Reading the Fockian *** 
                      *** Removing any level shift *** 
ITER      Energy       Delta-E        Grad      Rot      Max-DP    RMS-DP
  0   -549.35821311 -549.3582131054  0.000004  0.000004  0.000010  0.000000
               *** Restarting incremental Fock matrix formation ***
                 **** Energy Check signals convergence ****
              ***Rediagonalizing the Fockian in SOSCF/NRSCF***

               *****************************************************
               *                     SUCCESS                       *
               *           SCF CONVERGED AFTER   1 CYCLES          *
               *****************************************************

Total Energy       :         -549.35821311 Eh          -14948.79696 eV
  Last Energy change         ...   -4.6884e-10  Tolerance :   1.0000e-06
  Last MAX-Density change    ...    3.1843e-06  Tolerance :   1.0000e-05
             **** THE GBW FILE WAS UPDATED (scan_c4_h.gbw) ****
             **** DENSITY scan_c4_h.scfp WAS UPDATED ****
             **** ENERGY FILE WAS UPDATED (scan_c4_h.en.tmp) ****
             **** THE GBW FILE WAS UPDATED (scan_c4_h.gbw) ****
             **** DENSITY scan_c4_h.scfp WAS UPDATED ****
Total SCF time: 0 days 0 hours 0 min 2 sec 

Maximum memory used throughout the entire SCF-calculation: 228.2 MB

-------------------------   --------------------
FINAL SINGLE POINT ENERGY      -549.358213105861
-------------------------   --------------------

Storing actual gbw-file in scan_c4_h.081.gbw ... done

                            ***************************************
                            *     ORCA property calculations      *
                            ***************************************

                                    ---------------------
                                    Active property flags
                                    ---------------------
   (+) Dipole Moment


------------------------------------------------------------------------------
                       ORCA ELECTRIC PROPERTIES CALCULATION
------------------------------------------------------------------------------

Dipole Moment Calculation                       ... on
Quadrupole Moment Calculation                   ... off
Polarizability Calculation                      ... off
GBWName                                         ... scan_c4_h.gbw
Electron density                                ... scan_c4_h.scfp
The origin for moment calculation is the CENTER OF MASS  = ( 3.653582,  2.076665  2.359565)

-------------
DIPOLE MOMENT
-------------
                                X             Y             Z
Electronic contribution:      3.69553       0.27083      -9.81625
Nuclear contribution   :     -3.94062       0.40722       9.62094
                        -----------------------------------------
Total Dipole Moment    :     -0.24509       0.67805      -0.19532
                        -----------------------------------------
Magnitude (a.u.)       :      0.74697
Magnitude (Debye)      :      1.89865



--------------------
Rotational spectrum 
--------------------
 
Rotational constants in cm-1:     0.026429     0.007969     0.007296 
Rotational constants in MHz :   792.310047   238.894622   218.717789 

 Dipole components along the rotational axes: 
x,y,z [a.u.] :    -0.155856     0.201556    -0.702175 
x,y,z [Debye]:    -0.396155     0.512314    -1.784786 

 
                              **** TRAJECTORY DONE ***

                         SUMMARY OF THE CALCULATED SURFACE

------------------
TRAJECTORY RESULTS
------------------

Column   1: B

The Calculated Surface using the 'Actual Energy'
   2.00000000 -549.35183906
   2.10000000 -549.35451640
   2.20000000 -549.35637631
   2.30000000 -549.35764241
   2.40000000 -549.35848215
   2.50000000 -549.35902106
   2.60000000 -549.35935162
   2.70000000 -549.35954087
   2.80000000 -549.35963595
   2.90000000 -549.35966894
   3.00000000 -549.35966090
   3.10000000 -549.35962538
   3.20000000 -549.35957104
   3.30000000 -549.35950365
   3.40000000 -549.35942742
   3.50000000 -549.35934575
   3.60000000 -549.35926160
   3.70000000 -549.35917770
   3.80000000 -549.35909629
   3.90000000 -549.35901920
   4.00000000 -549.35894776
   4.10000000 -549.35888275
   4.20000000 -549.35882448
   4.30000000 -549.35877286
   4.40000000 -549.35872748
   4.50000000 -549.35868775
   4.60000000 -549.35865298
   4.70000000 -549.35862231
   4.80000000 -549.35859533
   4.90000000 -549.35857131
   5.00000000 -549.35854968
   5.10000000 -549.35853002
   5.20000000 -549.35851197
   5.30000000 -549.35849526
   5.40000000 -549.35847968
   5.50000000 -549.35846506
   5.60000000 -549.35845130
   5.70000000 -549.35843829
   5.80000000 -549.35842597
   5.90000000 -549.35841429
   6.00000000 -549.35840319
   6.10000000 -549.35839264
   6.20000000 -549.35838261
   6.30000000 -549.35837307
   6.40000000 -549.35836399
   6.50000000 -549.35835536
   6.60000000 -549.35834714
   6.70000000 -549.35833932
   6.80000000 -549.35833188
   6.90000000 -549.35832480
   7.00000000 -549.35831806
   7.10000000 -549.35831164
   7.20000000 -549.35830553
   7.30000000 -549.35829971
   7.40000000 -549.35829417
   7.50000000 -549.35828889
   7.60000000 -549.35828387
   7.70000000 -549.35827907
   7.80000000 -549.35827451
   7.90000000 -549.35827015
   8.00000000 -549.35826600
   8.10000000 -549.35826205
   8.20000000 -549.35825827
   8.30000000 -549.35825467
   8.40000000 -549.35825124
   8.50000000 -549.35824796
   8.60000000 -549.35824483
   8.70000000 -549.35824184
   8.80000000 -549.35823898
   8.90000000 -549.35823626
   9.00000000 -549.35823365
   9.10000000 -549.35823116
   9.20000000 -549.35822878
   9.30000000 -549.35822651
   9.40000000 -549.35822433
   9.50000000 -549.35822225
   9.60000000 -549.35822026
   9.70000000 -549.35821835
   9.80000000 -549.35821653
   9.90000000 -549.35821478
  10.00000000 -549.35821311

The Calculated Surface using the SCF energy
   2.00000000 -549.35183906
   2.10000000 -549.35451640
   2.20000000 -549.35637631
   2.30000000 -549.35764241
   2.40000000 -549.35848215
   2.50000000 -549.35902106
   2.60000000 -549.35935162
   2.70000000 -549.35954087
   2.80000000 -549.35963595
   2.90000000 -549.35966894
   3.00000000 -549.35966090
   3.10000000 -549.35962538
   3.20000000 -549.35957104
   3.30000000 -549.35950365
   3.40000000 -549.35942742
   3.50000000 -549.35934575
   3.60000000 -549.35926160
   3.70000000 -549.35917770
   3.80000000 -549.35909629
   3.90000000 -549.35901920
   4.00000000 -549.35894776
   4.10000000 -549.35888275
   4.20000000 -549.35882448
   4.30000000 -549.35877286
   4.40000000 -549.35872748
   4.50000000 -549.35868775
   4.60000000 -549.35865298
   4.70000000 -549.35862231
   4.80000000 -549.35859533
   4.90000000 -549.35857131
   5.00000000 -549.35854968
   5.10000000 -549.35853002
   5.20000000 -549.35851197
   5.30000000 -549.35849526
   5.40000000 -549.35847968
   5.50000000 -549.35846506
   5.60000000 -549.35845130
   5.70000000 -549.35843829
   5.80000000 -549.35842597
   5.90000000 -549.35841429
   6.00000000 -549.35840319
   6.10000000 -549.35839264
   6.20000000 -549.35838261
   6.30000000 -549.35837307
   6.40000000 -549.35836399
   6.50000000 -549.35835536
   6.60000000 -549.35834714
   6.70000000 -549.35833932
   6.80000000 -549.35833188
   6.90000000 -549.35832480
   7.00000000 -549.35831806
   7.10000000 -549.35831164
   7.20000000 -549.35830553
   7.30000000 -549.35829971
   7.40000000 -549.35829417
   7.50000000 -549.35828889
   7.60000000 -549.35828387
   7.70000000 -549.35827907
   7.80000000 -549.35827451
   7.90000000 -549.35827015
   8.00000000 -549.35826600
   8.10000000 -549.35826205
   8.20000000 -549.35825827
   8.30000000 -549.35825467
   8.40000000 -549.35825124
   8.50000000 -549.35824796
   8.60000000 -549.35824483
   8.70000000 -549.35824184
   8.80000000 -549.35823898
   8.90000000 -549.35823626
   9.00000000 -549.35823365
   9.10000000 -549.35823116
   9.20000000 -549.35822878
   9.30000000 -549.35822651
   9.40000000 -549.35822433
   9.50000000 -549.35822225
   9.60000000 -549.35822026
   9.70000000 -549.35821835
   9.80000000 -549.35821653
   9.90000000 -549.35821478
  10.00000000 -549.35821311


Timings for individual modules:

Sum of individual times         ...      293.944 sec (=   4.899 min)
GTO integral calculation        ...       36.194 sec (=   0.603 min)  12.3 %
SCF iterations                  ...      257.750 sec (=   4.296 min)  87.7 %
                             ****ORCA TERMINATED NORMALLY****
TOTAL RUN TIME: 0 days 0 hours 5 minutes 26 seconds 480 msec
