17
Coordinates from ORCA-job cccn_scan Relaxed Surface Scan Step 1
  C      -0.124504     -1.026756     -1.819899
  C       0.519153     -0.116882     -0.959608
  C      -1.424750     -1.481301     -1.549237
  C      -0.137397      0.344529      0.223710
  C      -2.130239     -0.936956     -0.461542
  C      -1.461259     -0.101012      0.444731
  H      -3.164782     -1.239351     -0.269580
  H      -1.922088      0.151631      1.405115
  C       0.680858      0.380456      1.512250
  H       0.384209     -1.334276     -2.742038
  N       1.522998      0.782878     -1.474684
  O       0.209056      0.140823      2.601399
  O       1.995690      0.639312      1.339255
  H       2.130071      0.842245      0.385563
  H      -1.905592     -2.199017     -2.222353
  H       1.061976      1.639909     -1.778904
  H       2.022731      0.388462     -2.274015
17
Coordinates from ORCA-job cccn_scan Relaxed Surface Scan Step 2
  C      -0.159964     -0.993266     -1.856835
  C       0.496519     -0.122369     -0.967468
  C      -1.454461     -1.460329     -1.581384
  C      -0.145061      0.297657      0.233544
  C      -2.136729     -0.974794     -0.451665
  C      -1.459478     -0.163554      0.470090
  H      -3.163686     -1.295580     -0.249249
  H      -1.908306      0.071232      1.440238
  C       0.683760      0.438578      1.507347
  H       0.338001     -1.271504     -2.793779
  N       1.561187      0.738368     -1.428897
  O       0.213116      0.267353      2.611462
  O       1.990497      0.708497      1.317872
  H       2.125628      0.839976      0.348821
  H      -1.946690     -2.149390     -2.275751
  H       1.150887      1.616145     -1.750098
  H       2.070911      0.327675     -2.214086
17
Coordinates from ORCA-job cccn_scan Relaxed Surface Scan Step 3
  C      -0.192650     -0.957402     -1.889903
  C       0.477283     -0.122202     -0.977255
  C      -1.479929     -1.439879     -1.608588
  C      -0.147087      0.252940      0.243446
  C      -2.138016     -1.012929     -0.441511
  C      -1.452019     -0.224739      0.493087
  H      -3.156723     -1.352660     -0.228788
  H      -1.888748     -0.007934      1.472572
  C       0.679649      0.496804      1.502110
  H       0.293079     -1.205224     -2.841529
  N       1.595025      0.692954     -1.395515
  O       0.200009      0.401912      2.612988
  O       1.982421      0.768463      1.306183
  H       2.127990      0.826303      0.329435
  H      -1.983046     -2.101831     -2.321170
  H       1.237985      1.593536     -1.720367
  H       2.100907      0.266582     -2.175034
17
Coordinates from ORCA-job cccn_scan Relaxed Surface Scan Step 4
  C      -0.222671     -0.920320     -1.918635
  C       0.460787     -0.118274     -0.986536
  C      -1.501834     -1.419575     -1.630986
  C      -0.145257      0.210301      0.253506
  C      -2.135352     -1.050568     -0.431079
  C      -1.441022     -0.283907      0.514620
  H      -3.145381     -1.409915     -0.209512
  H      -1.865977     -0.084334      1.502626
  C       0.670301      0.553016      1.495499
  H       0.249817     -1.137469     -2.884163
  N       1.625362      0.647415     -1.369714
  O       0.176365      0.535435      2.605048
  O       1.971010      0.825260      1.298082
  H       2.131502      0.809710      0.320564
  H      -2.016069     -2.055388     -2.359188
  H       1.322702      1.568903     -1.693890
  H       2.121846      0.204405     -2.146081
17
Coordinates from ORCA-job cccn_scan Relaxed Surface Scan Step 5
  C      -0.250202     -0.883177     -1.942687
  C       0.446778     -0.111065     -0.995483
  C      -1.520868     -1.399881     -1.649062
  C      -0.139875      0.170034      0.263461
  C      -2.129550     -1.086967     -0.420831
  C      -1.426912     -0.339796      0.533886
  H      -3.130816     -1.465144     -0.191138
  H      -1.841482     -0.156960      1.529316
  C       0.657197      0.606763      1.486589
  H       0.208426     -1.070006     -2.921074
  N       1.652438      0.602806     -1.350035
  O       0.144023      0.666726      2.586636
  O       1.958407      0.875686      1.293364
  H       2.138343      0.786603      0.322574
  H      -2.045600     -2.011318     -2.390461
  H       1.403617      1.543985     -1.665766
  H       2.132208      0.146406     -2.129126
17
Coordinates from ORCA-job cccn_scan Relaxed Surface Scan Step 6
  C      -0.275341     -0.846596     -1.962322
  C       0.434571     -0.101120     -1.003457
  C      -1.537744     -1.380119     -1.663513
  C      -0.131467      0.131296      0.273590
  C      -2.121510     -1.121445     -0.410959
  C      -1.410827     -0.392077      0.551283
  H      -3.114305     -1.517169     -0.174319
  H      -1.816072     -0.225818      1.553305
  C       0.641791      0.656419      1.475449
  H       0.168990     -1.003529     -2.952452
  N       1.676649      0.559389     -1.334397
  O       0.106959      0.790793      2.558885
  O       1.944755      0.921824      1.289546
  H       2.145979      0.760853      0.332386
  H      -2.072559     -1.968740     -2.416025
  H       1.481002      1.518097     -1.636853
  H       2.135260      0.092638     -2.119984
17
Coordinates from ORCA-job cccn_scan Relaxed Surface Scan Step 7
  C      -0.298007     -0.810894     -1.977895
  C       0.423543     -0.088550     -1.009948
  C      -1.552895     -1.359544     -1.674897
  C      -0.120275      0.093159      0.284236
  C      -2.111804     -1.153651     -0.401525
  C      -1.393706     -0.440519      0.567227
  H      -3.096794     -1.565359     -0.159691
  H      -1.790229     -0.291066      1.575285
  C       0.625089      0.701094      1.462804
  H       0.131581     -0.938045     -2.978722
  N       1.698057      0.517530     -1.321667
  O       0.067794      0.903455      2.524155
  O       1.929985      0.965138      1.285242
  H       2.152160      0.737165      0.346880
  H      -2.097500     -1.926877     -2.436644
  H       1.555071      1.490365     -1.610413
  H       2.134062      0.041293     -2.114265
17
Coordinates from ORCA-job cccn_scan Relaxed Surface Scan Step 8
  C      -0.318703     -0.775155     -1.989675
  C       0.413856     -0.074030     -1.014194
  C      -1.567064     -1.337053     -1.683961
  C      -0.106275      0.054882      0.295894
  C      -2.100921     -1.183547     -0.392683
  C      -1.375513     -0.486288      0.582112
  H      -3.078886     -1.609540     -0.147163
  H      -1.763632     -0.354904      1.595919
  C       0.607345      0.740416      1.449635
  H       0.095934     -0.872324     -3.000140
  N       1.717784      0.475851     -1.310844
  O       0.027613      1.000942      2.485702
  O       1.912667      1.011469      1.279271
  H       2.155532      0.722626      0.363659
  H      -2.121290     -1.883673     -2.453855
  H       1.626356      1.457840     -1.591729
  H       2.131328     -0.012817     -2.107782
17
Coordinates from ORCA-job cccn_scan Relaxed Surface Scan Step 9
  C      -0.372209     -0.648112     -2.015448
  C       0.406392     -0.050585     -1.006711
  C      -1.623524     -1.207187     -1.718826
  C      -0.064997     -0.022522      0.326830
  C      -2.090388     -1.195031     -0.392377
  C      -1.320764     -0.597015      0.613391
  H      -3.061772     -1.636711     -0.147835
  H      -1.672677     -0.549363      1.647477
  C       0.612657      0.707124      1.480733
  H       0.012800     -0.670629     -3.041804
  N       1.732885      0.470109     -1.293358
  O       0.117766      0.712371      2.591905
  O       1.756014      1.349129      1.206286
  H       1.953060      1.189648      0.244632
  H      -2.221383     -1.662306     -2.515172
  H       1.716710      0.998344     -2.170273
  H       2.375560     -0.312571     -1.449286
17
Coordinates from ORCA-job cccn_scan Relaxed Surface Scan Step 10
  C      -0.407299     -0.575843     -2.034408
  C       0.405139     -0.040105     -1.018446
  C      -1.655593     -1.138727     -1.730220
  C      -0.027192     -0.080587      0.329273
  C      -2.074256     -1.215902     -0.390314
  C      -1.274086     -0.670116      0.622005
  H      -3.038361     -1.670311     -0.140779
  H      -1.601110     -0.664137      1.665513
  C       0.608924      0.713848      1.461866
  H      -0.050982     -0.552551     -3.071158
  N       1.743344      0.429451     -1.296194
  O       0.161964      0.668867      2.591475
  O       1.654962      1.492768      1.142874
  H       1.850768      1.346559      0.182189
  H      -2.282531     -1.540502     -2.532916
  H       1.832815      0.705234     -2.276611
  H       2.409626     -0.333249     -1.143988
17
Coordinates from ORCA-job cccn_scan Relaxed Surface Scan Step 11
  C      -0.423642     -0.529787     -2.036347
  C       0.403572     -0.022190     -1.017835
  C      -1.663101     -1.109979     -1.728453
  C      -0.000851     -0.111054      0.337304
  C      -2.050991     -1.244039     -0.383602
  C      -1.240671     -0.716564      0.630532
  H      -3.005536     -1.716929     -0.131520
  H      -1.559283     -0.728982      1.676715
  C       0.578699      0.755129      1.449070
  H      -0.083689     -0.475166     -3.077461
  N       1.764225      0.383028     -1.288461
  O       0.085758      0.771269      2.559779
  O       1.627729      1.528400      1.125493
  H       1.867596      1.324142      0.185627
  H      -2.303308     -1.487903     -2.532309
  H       1.872803      0.671795     -2.263285
  H       2.386822     -0.416474     -1.145086
17
Coordinates from ORCA-job cccn_scan Relaxed Surface Scan Step 12
  C      -0.439499     -0.480640     -2.034879
  C       0.404789     -0.003790     -1.015399
  C      -1.669469     -1.079243     -1.723651
  C       0.028249     -0.139389      0.345618
  C      -2.024555     -1.272001     -0.376703
  C      -1.203104     -0.763768      0.638597
  H      -2.968438     -1.764836     -0.122536
  H      -1.513829     -0.795482      1.686933
  C       0.544017      0.796804      1.433110
  H      -0.116407     -0.394794     -3.079334
  N       1.784993      0.332440     -1.283216
  O       0.001682      0.872198      2.517287
  O       1.596962      1.565415      1.107629
  H       1.882140      1.305558      0.195228
  H      -2.324059     -1.432126     -2.527366
  H       1.912243      0.630465     -2.253041
  H       2.360418     -0.502115     -1.148116
17
Coordinates from ORCA-job cccn_scan Relaxed Surface Scan Step 13
  C      -0.454608     -0.428563     -2.029779
  C       0.409347      0.015110     -1.011720
  C      -1.674860     -1.045772     -1.715448
  C       0.060730     -0.165671      0.354239
  C      -1.994742     -1.299241     -0.369668
  C      -1.160864     -0.811024      0.645854
  H      -2.926878     -1.813210     -0.113881
  H      -1.464047     -0.863282      1.695831
  C       0.505019      0.837918      1.413925
  H      -0.149313     -0.311717     -3.076696
  N       1.805297      0.277123     -1.281635
  O      -0.089466      0.967621      2.464048
  O       1.561073      1.605242      1.089618
  H       1.892349      1.294329      0.210660
  H      -2.345018     -1.372308     -2.517545
  H       1.951386      0.577386     -2.248080
  H       2.330727     -0.589245     -1.149562
17
Coordinates from ORCA-job cccn_scan Relaxed Surface Scan Step 14
  C      -0.467833     -0.373922     -2.020818
  C       0.419140      0.033861     -1.007057
  C      -1.679216     -1.007686     -1.703968
  C       0.098049     -0.190115      0.362876
  C      -1.961942     -1.323396     -0.363012
  C      -1.113766     -0.857138      0.651530
  H      -2.882246     -1.857963     -0.106454
  H      -1.409050     -0.931113      1.702762
  C       0.461482      0.874837      1.393895
  H      -0.180791     -0.227000     -3.069280
  N       1.825361      0.215764     -1.286955
  O      -0.183740      1.047431      2.405671
  O       1.515481      1.651054      1.073075
  H       1.895326      1.297432      0.233230
  H      -2.366415     -1.306004     -2.502713
  H       1.986626      0.506228     -2.253827
  H       2.299668     -0.677574     -1.148795
17
Coordinates from ORCA-job cccn_scan Relaxed Surface Scan Step 15
  C      -0.478619     -0.316216     -2.007998
  C       0.435770      0.051300     -1.002546
  C      -1.682515     -0.963768     -1.689010
  C       0.140416     -0.211467      0.371510
  C      -1.925832     -1.343940     -0.357268
  C      -1.061226     -0.901193      0.654672
  H      -2.833938     -1.898883     -0.100437
  H      -1.348771     -0.997074      1.706655
  C       0.413507      0.906565      1.374584
  H      -0.210376     -0.140459     -3.057240
  N       1.844758      0.146597     -1.302334
  O      -0.281699      1.107489      2.345445
  O       1.459445      1.702708      1.061667
  H       1.889641      1.318864      0.263859
  H      -2.388420     -1.230994     -2.482528
  H       2.015345      0.412482     -2.274288
  H       2.268644     -0.767315     -1.144579
