
                                 *****************
                                 * O   R   C   A *
                                 *****************

                                            #,                                       
                                            ###                                      
                                            ####                                     
                                            #####                                    
                                            ######                                   
                                           ########,                                 
                                     ,,################,,,,,                         
                               ,,#################################,,                 
                          ,,##########################################,,             
                       ,#########################################, ''#####,          
                    ,#############################################,,   '####,        
                  ,##################################################,,,,####,       
                ,###########''''           ''''###############################       
              ,#####''   ,,,,##########,,,,          '''####'''          '####       
            ,##' ,,,,###########################,,,                        '##       
           ' ,,###''''                  '''############,,,                           
         ,,##''                                '''############,,,,        ,,,,,,###''
      ,#''                                            '''#######################'''  
     '                                                          ''''####''''         
             ,#######,   #######,   ,#######,      ##                                
            ,#'     '#,  ##    ##  ,#'     '#,    #''#        ######   ,####,        
            ##       ##  ##   ,#'  ##            #'  '#       #        #'  '#        
            ##       ##  #######   ##           ,######,      #####,   #    #        
            '#,     ,#'  ##    ##  '#,     ,#' ,#      #,         ##   #,  ,#        
             '#######'   ##     ##  '#######'  #'      '#     #####' # '####'        



                  #######################################################
                  #                        -***-                        #
                  #          Department of theory and spectroscopy      #
                  #    Directorship and core code : Frank Neese         #
                  #        Max Planck Institute fuer Kohlenforschung    #
                  #                Kaiser Wilhelm Platz 1               #
                  #                 D-45470 Muelheim/Ruhr               #
                  #                      Germany                        #
                  #                                                     #
                  #                  All rights reserved                #
                  #                        -***-                        #
                  #######################################################


                         Program Version 5.0.4 -  RELEASE  -


 With contributions from (in alphabetic order):
   Daniel Aravena         : Magnetic Suceptibility
   Michael Atanasov       : Ab Initio Ligand Field Theory (pilot matlab implementation)
   Alexander A. Auer      : GIAO ZORA, VPT2 properties, NMR spectrum
   Ute Becker             : Parallelization
   Giovanni Bistoni       : ED, misc. LED, open-shell LED, HFLD
   Martin Brehm           : Molecular dynamics
   Dmytro Bykov           : SCF Hessian
   Vijay G. Chilkuri      : MRCI spin determinant printing, contributions to CSF-ICE
   Dipayan Datta          : RHF DLPNO-CCSD density
   Achintya Kumar Dutta   : EOM-CC, STEOM-CC
   Dmitry Ganyushin       : Spin-Orbit,Spin-Spin,Magnetic field MRCI
   Miquel Garcia          : C-PCM and meta-GGA Hessian, CC/C-PCM, Gaussian charge scheme
   Yang Guo               : DLPNO-NEVPT2, F12-NEVPT2, CIM, IAO-localization
   Andreas Hansen         : Spin unrestricted coupled pair/coupled cluster methods
   Benjamin Helmich-Paris : MC-RPA, TRAH-SCF, COSX integrals
   Lee Huntington         : MR-EOM, pCC
   Robert Izsak           : Overlap fitted RIJCOSX, COSX-SCS-MP3, EOM
   Marcus Kettner         : VPT2
   Christian Kollmar      : KDIIS, OOCD, Brueckner-CCSD(T), CCSD density, CASPT2, CASPT2-K
   Simone Kossmann        : Meta GGA functionals, TD-DFT gradient, OOMP2, MP2 Hessian
   Martin Krupicka        : Initial AUTO-CI
   Lucas Lang             : DCDCAS
   Marvin Lechner         : AUTO-CI (C++ implementation), FIC-MRCC
   Dagmar Lenk            : GEPOL surface, SMD
   Dimitrios Liakos       : Extrapolation schemes; Compound Job, initial MDCI parallelization
   Dimitrios Manganas     : Further ROCIS development; embedding schemes
   Dimitrios Pantazis     : SARC Basis sets
   Anastasios Papadopoulos: AUTO-CI, single reference methods and gradients
   Taras Petrenko         : DFT Hessian,TD-DFT gradient, ASA, ECA, R-Raman, ABS, FL, XAS/XES, NRVS
   Peter Pinski           : DLPNO-MP2, DLPNO-MP2 Gradient
   Christoph Reimann      : Effective Core Potentials
   Marius Retegan         : Local ZFS, SOC
   Christoph Riplinger    : Optimizer, TS searches, QM/MM, DLPNO-CCSD(T), (RO)-DLPNO pert. Triples
   Tobias Risthaus        : Range-separated hybrids, TD-DFT gradient, RPA, STAB
   Michael Roemelt        : Original ROCIS implementation
   Masaaki Saitow         : Open-shell DLPNO-CCSD energy and density
   Barbara Sandhoefer     : DKH picture change effects
   Avijit Sen             : IP-ROCIS
   Kantharuban Sivalingam : CASSCF convergence, NEVPT2, FIC-MRCI
   Bernardo de Souza      : ESD, SOC TD-DFT
   Georgi Stoychev        : AutoAux, RI-MP2 NMR, DLPNO-MP2 response
   Willem Van den Heuvel  : Paramagnetic NMR
   Boris Wezisla          : Elementary symmetry handling
   Frank Wennmohs         : Technical directorship


 We gratefully acknowledge several colleagues who have allowed us to
 interface, adapt or use parts of their codes:
   Stefan Grimme, W. Hujo, H. Kruse, P. Pracht,  : VdW corrections, initial TS optimization,
                  C. Bannwarth, S. Ehlert          DFT functionals, gCP, sTDA/sTD-DF
   Ed Valeev, F. Pavosevic, A. Kumar             : LibInt (2-el integral package), F12 methods
   Garnet Chan, S. Sharma, J. Yang, R. Olivares  : DMRG
   Ulf Ekstrom                                   : XCFun DFT Library
   Mihaly Kallay                                 : mrcc  (arbitrary order and MRCC methods)
   Jiri Pittner, Ondrej Demel                    : Mk-CCSD
   Frank Weinhold                                : gennbo (NPA and NBO analysis)
   Christopher J. Cramer and Donald G. Truhlar   : smd solvation model
   Lars Goerigk                                  : TD-DFT with DH, B97 family of functionals
   V. Asgeirsson, H. Jonsson                     : NEB implementation
   FAccTs GmbH                                   : IRC, NEB, NEB-TS, DLPNO-Multilevel, CI-OPT
                                                   MM, QMMM, 2- and 3-layer-ONIOM, Crystal-QMMM,
                                                   LR-CPCM, SF, NACMEs, symmetry and pop. for TD-DFT,
                                                   nearIR, NL-DFT gradient (VV10), updates on ESD,
                                                   ML-optimized integration grids
   S Lehtola, MJT Oliveira, MAL Marques          : LibXC Library
   Liviu Ungur et al                             : ANISO software


 Your calculation uses the libint2 library for the computation of 2-el integrals
 For citations please refer to: http://libint.valeyev.net

 Your ORCA version has been built with support for libXC version: 5.1.0
 For citations please refer to: https://tddft.org/programs/libxc/

 This ORCA versions uses:
   CBLAS   interface :  Fast vector & matrix operations
   LAPACKE interface :  Fast linear algebra routines
   SCALAPACK package :  Parallel linear algebra routines
   Shared memory     :  Shared parallel matrices
   BLAS/LAPACK       :  OpenBLAS 0.3.15  USE64BITINT DYNAMIC_ARCH NO_AFFINITY SkylakeX SINGLE_THREADED
        Core in use  :  SkylakeX
   Copyright (c) 2011-2014, The OpenBLAS Project


================================================================================

----- Orbital basis set information -----
Your calculation utilizes the basis: 6-31G(d)
   H-He, Li-Ne : W. J. Hehre, R. Ditchfield and J.A. Pople, J. Chem. Phys. 56, 2257 (1972).
                 Note: He and Ne are unpublished basis sets taken from the Gaussian program.
                 Note: Li and B from J. D. Dill and J. A. Pople, J. Chem. Phys. 62, 2921 (1975).
   Na - Ar     : M. M. Francl, W. J. Pietro, W. J. Hehre, J. S. Binkley, M. S. Gordon, 
                 D. J. DeFrees and J. A. Pople, J. Chem. Phys. 77, 3654 (1982).
   K - Zn      : V. A. Rassolov, J. A. Pople, M. A. Ratner, and T. L. Windus, J. Chem. Phys. 109, 1223 (1998).

================================================================================
                                        WARNINGS
                       Please study these warnings very carefully!
================================================================================

WARNING: Old DensityContainer found on disk!
         Will remove this file - 
         If you want to keep old densities, please start your calculation with a different basename. 


INFO   : the flag for use of the SHARK integral package has been found!

================================================================================
                                       INPUT FILE
================================================================================
NAME = scan_c2_h.in
|  1> ! HF 6-31g(d) PAL4
|  2> 
|  3> %paras  
|  4> B=2,10,81
|  5> end 
|  6> 
|  7> *int 0 1
|  8>  C      0   0   0     0.000000000000     0.00000000     0.00000000
|  9>  C      1   0   0     1.410408792387     0.00000000     0.00000000
| 10>  C      1   2   0     1.387629674561   121.46540976     0.00000000
| 11>  C      2   1   3     1.418429715822   117.86149259   357.95682680
| 12>  C      3   1   2     1.401216550379   120.41314464     1.85928728
| 13>  C      5   3   1     1.387728922094   119.18088952   358.56672225
| 14>  H      5   3   1     1.086448109445   120.54301814   179.88964476
| 15>  H      6   5   3     1.085257810950   120.27815199   180.37435074
| 16>  C      4   2   1     1.474525319058   120.29082617   177.88235003
| 17>  H      1   2   3     1.088916721971   118.52499331   181.18172947
| 18>  N      2   1   3     1.382927159506   119.21307977   183.26061362
| 19>  O      9   4   2     1.231295327431   126.25299933   356.29999903
| 20>  O      9   4   2     1.361745810407   113.26023456   176.60892359
| 21>  H     13   9   4     0.980186199946   104.58659711   179.32147663
| 22>  H      3   1   2     1.088000665320   119.35735619   180.54826763
| 23>  H     11   2   1     1.014297666448   115.28426224   195.45494424
| 24>  H     11   2   1     1.012437828384   115.27373933   333.44819984
| 25>  H     11   2   1     {B}               90.00000000    90.00000000
| 26>  O     18   11  2     0.957200000000   180.00000000    90.00000000 
| 27>  H     19   11  2     0.957200000000   104.52000000   180.00000000  
| 28> *
| 29> 
| 30>                          ****END OF INPUT****
================================================================================

                       ******************************
                       * Parameter Scan Calculation *
                       ******************************

Trajectory settings:
    -> SCF surface will be mapped

There are 1 parameter(s) to be scanned
             B: range=   2.00000000 ..  10.00000000  steps=   81
There will be   81 energy evaluations


         *************************************************************
                                TRAJECTORY STEP   1
                  B  :   2.00000000
         *************************************************************
---------------------------------
CARTESIAN COORDINATES (ANGSTROEM)
---------------------------------
  C      0.000000    0.000000    0.000000
  C      1.410409    0.000000    0.000000
  C     -0.724320    1.183586    0.000000
  C      2.073292    1.253208   -0.044708
  C     -0.064411    2.419058   -0.039207
  C      1.323048    2.445080   -0.047743
  H     -0.629466    3.347001   -0.041088
  H      1.852429    3.392160   -0.071804
  C      3.545723    1.317753    0.000066
  H     -0.520004   -0.956528    0.019731
  N      2.085359   -1.205080   -0.068653
  O      4.312423    0.364488    0.139874
  O      4.032585    2.583306   -0.125203
  H      5.005653    2.480252   -0.067898
  H     -1.811547    1.143588    0.009074
  H      3.068328   -1.165755    0.178380
  H      1.581522   -2.004078    0.295737
  H      2.085359   -1.091324   -2.065416
  O      2.085359   -1.036881   -3.021066
  H      2.537607   -1.830692   -3.306666

----------------------------
CARTESIAN COORDINATES (A.U.)
----------------------------
  NO LB      ZA    FRAG     MASS         X           Y           Z
   0 C     6.0000    0    12.011    0.000000    0.000000    0.000000
   1 C     6.0000    0    12.011    2.665286    0.000000    0.000000
   2 C     6.0000    0    12.011   -1.368767    2.236654    0.000000
   3 C     6.0000    0    12.011    3.917954    2.368220   -0.084487
   4 C     6.0000    0    12.011   -0.121718    4.571357   -0.074090
   5 C     6.0000    0    12.011    2.500199    4.620531   -0.090221
   6 H     1.0000    0     1.008   -1.189519    6.324915   -0.077645
   7 H     1.0000    0     1.008    3.500584    6.410253   -0.135689
   8 C     6.0000    0    12.011    6.700446    2.490192    0.000125
   9 H     1.0000    0     1.008   -0.982664   -1.807577    0.037287
  10 N     7.0000    0    14.007    3.940757   -2.277270   -0.129736
  11 O     8.0000    0    15.999    8.149298    0.688782    0.264323
  12 O     8.0000    0    15.999    7.620482    4.881740   -0.236599
  13 H     1.0000    0     1.008    9.459313    4.686996   -0.128308
  14 H     1.0000    0     1.008   -3.423328    2.161068    0.017147
  15 H     1.0000    0     1.008    5.798299   -2.202959    0.337089
  16 H     1.0000    0     1.008    2.988644   -3.787158    0.558863
  17 H     1.0000    0     1.008    3.940757   -2.062304   -3.903070
  18 O     8.0000    0    15.999    3.940757   -1.959421   -5.708988
  19 H     1.0000    0     1.008    4.795383   -3.459506   -6.248693

--------------------------------
INTERNAL COORDINATES (ANGSTROEM)
--------------------------------
 C      0   0   0     0.000000000000     0.00000000     0.00000000
 C      1   0   0     1.410408792387     0.00000000     0.00000000
 C      1   2   0     1.387629674561   121.46540976     0.00000000
 C      2   1   3     1.418429715822   117.86149259   357.95682680
 C      3   1   2     1.401216550379   120.41314464     1.85928728
 C      5   3   1     1.387728922094   119.18088952   358.56672225
 H      5   3   1     1.086448109445   120.54301814   179.88964476
 H      6   5   3     1.085257810950   120.27815199   180.37435074
 C      4   2   1     1.474525319058   120.29082617   177.88235003
 H      1   2   3     1.088916721971   118.52499331   181.18172947
 N      2   1   3     1.382927159506   119.21307977   183.26061362
 O      9   4   2     1.231295327431   126.25299933   356.29999903
 O      9   4   2     1.361745810407   113.26023456   176.60892359
 H     13   9   4     0.980186199946   104.58659711   179.32147663
 H      3   1   2     1.088000665320   119.35735619   180.54826763
 H     11   2   1     1.014297666448   115.28426224   195.45494424
 H     11   2   1     1.012437828384   115.27373933   333.44819984
 H     11   2   1     2.000000000000    90.00000000    90.00000000
 O     18  11   2     0.957200000000   180.00000000    90.00000000
 H     19  11   2     0.957200000000   104.52000000   180.00000000

---------------------------
INTERNAL COORDINATES (A.U.)
---------------------------
 C      0   0   0     0.000000000000     0.00000000     0.00000000
 C      1   0   0     2.665286354486     0.00000000     0.00000000
 C      1   2   0     2.622240060223   121.46540976     0.00000000
 C      2   1   3     2.680443703119   117.86149259   357.95682680
 C      3   1   2     2.647915534534   120.41314464     1.85928728
 C      5   3   1     2.622427610879   119.18088952   358.56672225
 H      5   3   1     2.053089385568   120.54301814   179.88964476
 H      6   5   3     2.050840047394   120.27815199   180.37435074
 C      4   2   1     2.786449030552   120.29082617   177.88235003
 H      1   2   3     2.057754387172   118.52499331   181.18172947
 N      2   1   3     2.613353594628   119.21307977   183.26061362
 O      9   4   2     2.326810958821   126.25299933   356.29999903
 O      9   4   2     2.573326645684   113.26023456   176.60892359
 H     13   9   4     1.852283478147   104.58659711   179.32147663
 H      3   1   2     2.056023290979   119.35735619   180.54826763
 H     11   2   1     1.916744807862   115.28426224   195.45494424
 H     11   2   1     1.913230223268   115.27373933   333.44819984
 H     11   2   1     3.779452267843    90.00000000    90.00000000
 O     18  11   2     1.808845855389   180.00000000    90.00000000
 H     19  11   2     1.808845855389   104.52000000   180.00000000

---------------------
BASIS SET INFORMATION
---------------------
There are 4 groups of distinct atoms

 Group   1 Type C   : 10s4p1d contracted to 3s2p1d pattern {631/31/1}
 Group   2 Type H   : 4s contracted to 2s pattern {31}
 Group   3 Type N   : 10s4p1d contracted to 3s2p1d pattern {631/31/1}
 Group   4 Type O   : 10s4p1d contracted to 3s2p1d pattern {631/31/1}

Atom   0C    basis set group =>   1
Atom   1C    basis set group =>   1
Atom   2C    basis set group =>   1
Atom   3C    basis set group =>   1
Atom   4C    basis set group =>   1
Atom   5C    basis set group =>   1
Atom   6H    basis set group =>   2
Atom   7H    basis set group =>   2
Atom   8C    basis set group =>   1
Atom   9H    basis set group =>   2
Atom  10N    basis set group =>   3
Atom  11O    basis set group =>   4
Atom  12O    basis set group =>   4
Atom  13H    basis set group =>   2
Atom  14H    basis set group =>   2
Atom  15H    basis set group =>   2
Atom  16H    basis set group =>   2
Atom  17H    basis set group =>   2
Atom  18O    basis set group =>   4
Atom  19H    basis set group =>   2


           ************************************************************
           *        Program running with 4 parallel MPI-processes     *
           *              working on a common directory               *
           ************************************************************
------------------------------------------------------------------------------
                           ORCA GTO INTEGRAL CALCULATION
------------------------------------------------------------------------------
------------------------------------------------------------------------------
                   ___                                                        
                  /   \      - P O W E R E D   B Y -                         
                 /     \                                                     
                 |  |  |   _    _      __       _____    __    __             
                 |  |  |  | |  | |    /  \     |  _  \  |  |  /  |          
                  \  \/   | |  | |   /    \    | | | |  |  | /  /          
                 / \  \   | |__| |  /  /\  \   | |_| |  |  |/  /          
                |  |  |   |  __  | /  /__\  \  |    /   |      \           
                |  |  |   | |  | | |   __   |  |    \   |  |\   \          
                \     /   | |  | | |  |  |  |  | |\  \  |  | \   \       
                 \___/    |_|  |_| |__|  |__|  |_| \__\ |__|  \__/        
                                                                              
                      - O R C A' S   B I G   F R I E N D -                    
                                      &                                       
                       - I N T E G R A L  F E E D E R -                       
                                                                              
 v1 FN, 2020, v2 2021                                                         
------------------------------------------------------------------------------


Reading SHARK input file scan_c2_h.SHARKINP.tmp ... ok
----------------------
SHARK INTEGRAL PACKAGE
----------------------

Number of atoms                             ...     20
Number of basis functions                   ...    172
Number of shells                            ...     84
Maximum angular momentum                    ...      2
Integral batch strategy                     ... SHARK/LIBINT Hybrid
RI-J (if used) integral strategy            ... SPLIT-RIJ (Revised 2003 algorithm where possible)
Printlevel                                  ...      1
Contraction scheme used                     ... SEGMENTED contraction
Coulomb Range Separation                    ... NOT USED
Exchange Range Separation                   ... NOT USED
Finite Nucleus Model                        ... NOT USED
Auxiliary Coulomb fitting basis             ... NOT available
Auxiliary J/K fitting basis                 ... NOT available
Auxiliary Correlation fitting basis         ... NOT available
Auxiliary 'external' fitting basis          ... NOT available
Integral threshold                          ...     1.000000e-10
Primitive cut-off                           ...     1.000000e-11
Primitive pair pre-selection threshold      ...     1.000000e-11

Calculating pre-screening integrals         ... done (  0.0 sec) Dimension = 84
Organizing shell pair data                  ... done (  0.0 sec)
Shell pair information
Total number of shell pairs                 ...      3570
Shell pairs after pre-screening             ...      3191
Total number of primitive shell pairs       ...     20559
Primitive shell pairs kept                  ...     11287
          la=0 lb=0:   1133 shell pairs
          la=1 lb=0:   1041 shell pairs
          la=1 lb=1:    245 shell pairs
          la=2 lb=0:    479 shell pairs
          la=2 lb=1:    233 shell pairs
          la=2 lb=2:     60 shell pairs

Calculating one electron integrals          ... done (  0.0 sec)
Calculating Nuclear repulsion               ... done (  0.0 sec) ENN=    603.495462584794 Eh

SHARK setup successfully completed in   0.1 seconds

Maximum memory used throughout the entire GTOINT-calculation: 11.0 MB


           ************************************************************
           *        Program running with 4 parallel MPI-processes     *
           *              working on a common directory               *
           ************************************************************
-------------------------------------------------------------------------------
                                 ORCA SCF
-------------------------------------------------------------------------------

------------
SCF SETTINGS
------------
Hamiltonian:
 Ab initio Hamiltonian  Method          .... Hartree-Fock(GTOs)


General Settings:
 Integral files         IntName         .... scan_c2_h
 Hartree-Fock type      HFTyp           .... RHF
 Total Charge           Charge          ....    0
 Multiplicity           Mult            ....    1
 Number of Electrons    NEL             ....   82
 Basis Dimension        Dim             ....  172
 Nuclear Repulsion      ENuc            ....    603.4954625848 Eh

Convergence Acceleration:
 DIIS                   CNVDIIS         .... on
   Start iteration      DIISMaxIt       ....    12
   Startup error        DIISStart       ....  0.200000
   # of expansion vecs  DIISMaxEq       ....     5
   Bias factor          DIISBfac        ....   1.050
   Max. coefficient     DIISMaxC        ....  10.000
 Trust-Rad. Augm. Hess. CNVTRAH         .... auto
   Auto Start mean grad. ratio tolernc. ....  1.125000
   Auto Start start iteration           ....    20
   Auto Start num. interpolation iter.  ....    10
   Max. Number of Micro iterations      ....    16
   Max. Number of Macro iterations      .... Maxiter - #DIIS iter
   Number of Davidson start vectors     ....     2
   Converg. threshold I  (grad. norm)   ....   5.000e-05
   Converg. threshold II (energy diff.) ....   1.000e-06
   Grad. Scal. Fac. for Micro threshold ....   0.100
   Minimum threshold for Micro iter.    ....   0.010
   NR start threshold (gradient norm)   ....   0.001
   Initial trust radius                 ....   0.400
   Minimum AH scaling param. (alpha)    ....   1.000
   Maximum AH scaling param. (alpha)    .... 1000.000
   Orbital update algorithm             .... Taylor
   White noise on init. David. guess    .... on
   Maximum white noise                  ....   0.010
   Quad. conv. algorithm                .... NR
 SOSCF                  CNVSOSCF        .... on
   Start iteration      SOSCFMaxIt      ....   150
   Startup grad/error   SOSCFStart      ....  0.003300
 Level Shifting         CNVShift        .... on
   Level shift para.    LevelShift      ....    0.2500
   Turn off err/grad.   ShiftErr        ....    0.0010
 Zerner damping         CNVZerner       .... off
 Static damping         CNVDamp         .... on
   Fraction old density DampFac         ....    0.7000
   Max. Damping (<1)    DampMax         ....    0.9800
   Min. Damping (>=0)   DampMin         ....    0.0000
   Turn off err/grad.   DampErr         ....    0.1000
 Fernandez-Rico         CNVRico         .... off

SCF Procedure:
 Maximum # iterations   MaxIter         ....   125
 SCF integral mode      SCFMode         .... Direct
   Integral package                     .... SHARK and LIBINT hybrid scheme
 Reset frequency        DirectResetFreq ....    20
 Integral Threshold     Thresh          ....  1.000e-10 Eh
 Primitive CutOff       TCut            ....  1.000e-11 Eh

Convergence Tolerance:
 Convergence Check Mode ConvCheckMode   .... Total+1el-Energy
 Convergence forced     ConvForced      .... 0
 Energy Change          TolE            ....  1.000e-06 Eh
 1-El. energy change                    ....  1.000e-03 Eh
 Orbital Gradient       TolG            ....  5.000e-05
 Orbital Rotation angle TolX            ....  5.000e-05
 DIIS Error             TolErr          ....  1.000e-06


Diagonalization of the overlap matrix:
Smallest eigenvalue                        ... 4.196e-04
Time for diagonalization                   ...    0.006 sec
Threshold for overlap eigenvalues          ... 1.000e-08
Number of eigenvalues below threshold      ... 0
Time for construction of square roots      ...    0.002 sec
Total time needed                          ...    0.009 sec

Time for model grid setup =    0.103 sec

------------------------------
INITIAL GUESS: MODEL POTENTIAL
------------------------------
Loading Hartree-Fock densities                     ... done
Calculating cut-offs                               ... done
Initializing the effective Hamiltonian             ... done
Setting up the integral package (SHARK)            ... done
Starting the Coulomb interaction                   ... done (   0.1 sec)
Reading the grid                                   ... done
Mapping shells                                     ... done
Starting the XC term evaluation                    ... done (   0.0 sec)
Transforming the Hamiltonian                       ... done (   0.0 sec)
Diagonalizing the Hamiltonian                      ... done (   0.0 sec)
Back transforming the eigenvectors                 ... done (   0.0 sec)
Now organizing SCF variables                       ... done
                      ------------------
                      INITIAL GUESS DONE (   0.2 sec)
                      ------------------
--------------
SCF ITERATIONS
--------------
ITER       Energy         Delta-E        Max-DP      RMS-DP      [F,P]     Damp
               ***  Starting incremental Fock matrix formation  ***
  0   -548.9084605753   0.000000000000 0.06897109  0.00235756  0.3160759 0.7000
  1   -549.0706421621  -0.162181586749 0.04790957  0.00178558  0.1893231 0.7000
                               ***Turning on DIIS***
  2   -549.1660403240  -0.095398161880 0.02740094  0.00118490  0.1025825 0.7000
  3   -550.2852998576  -1.119259533698 0.05038325  0.00260562  0.0545554 0.0000
  4   -549.3189333639   0.966366493776 0.00806385  0.00037572  0.0095585 0.0000
  5   -549.3818012246  -0.062867860701 0.00369073  0.00017451  0.0047893 0.0000
                      *** Initiating the SOSCF procedure ***
                           *** Shutting down DIIS ***
                      *** Re-Reading the Fockian *** 
                      *** Removing any level shift *** 
ITER      Energy       Delta-E        Grad      Rot      Max-DP    RMS-DP
  6   -549.36125047   0.0205507569  0.001240  0.001240  0.002557  0.000083
               *** Restarting incremental Fock matrix formation ***
  7   -549.36208931  -0.0008388386  0.000576  0.001209  0.001113  0.000045
  8   -549.36210989  -0.0000205837  0.000380  0.001745  0.001683  0.000057
  9   -549.36211864  -0.0000087519  0.000180  0.000248  0.000362  0.000011
 10   -549.36211973  -0.0000010841  0.000062  0.000174  0.000134  0.000005
                 **** Energy Check signals convergence ****
              ***Rediagonalizing the Fockian in SOSCF/NRSCF***

               *****************************************************
               *                     SUCCESS                       *
               *           SCF CONVERGED AFTER  11 CYCLES          *
               *****************************************************


----------------
TOTAL SCF ENERGY
----------------

Total Energy       :         -549.36211988 Eh          -14948.90327 eV

Components:
Nuclear Repulsion  :          603.49546258 Eh           16421.94641 eV
Electronic Energy  :        -1152.85758247 Eh          -31370.84968 eV
One Electron Energy:        -1948.64770125 Eh          -53025.39971 eV
Two Electron Energy:          795.79011878 Eh           21654.55003 eV

Virial components:
Potential Energy   :        -1098.00764462 Eh          -29878.30699 eV
Kinetic Energy     :          548.64552473 Eh           14929.40372 eV
Virial Ratio       :            2.00130612


---------------
SCF CONVERGENCE
---------------

  Last Energy change         ...   -1.5535e-07  Tolerance :   1.0000e-06
  Last MAX-Density change    ...    1.0093e-04  Tolerance :   1.0000e-05
  Last RMS-Density change    ...    3.7033e-06  Tolerance :   1.0000e-06
  Last Orbital Gradient      ...    3.0794e-05  Tolerance :   5.0000e-05
  Last Orbital Rotation      ...    1.8350e-04  Tolerance :   5.0000e-05

             **** THE GBW FILE WAS UPDATED (scan_c2_h.gbw) ****
             **** DENSITY scan_c2_h.scfp WAS UPDATED ****
             **** ENERGY FILE WAS UPDATED (scan_c2_h.en.tmp) ****
             **** THE GBW FILE WAS UPDATED (scan_c2_h.gbw) ****
             **** DENSITY scan_c2_h.scfp WAS UPDATED ****
----------------
ORBITAL ENERGIES
----------------

  NO   OCC          E(Eh)            E(eV) 
   0   2.0000     -20.617577      -561.0328 
   1   2.0000     -20.557955      -559.4104 
   2   2.0000     -20.515172      -558.2462 
   3   2.0000     -15.579631      -423.9433 
   4   2.0000     -11.401444      -310.2491 
   5   2.0000     -11.308405      -307.7173 
   6   2.0000     -11.258130      -306.3493 
   7   2.0000     -11.256025      -306.2920 
   8   2.0000     -11.249847      -306.1239 
   9   2.0000     -11.238126      -305.8050 
  10   2.0000     -11.232431      -305.6500 
  11   2.0000      -1.460622       -39.7456 
  12   2.0000      -1.354208       -36.8499 
  13   2.0000      -1.306665       -35.5562 
  14   2.0000      -1.244145       -33.8549 
  15   2.0000      -1.143474       -31.1155 
  16   2.0000      -1.046923       -28.4882 
  17   2.0000      -1.004025       -27.3209 
  18   2.0000      -0.894573       -24.3426 
  19   2.0000      -0.842708       -22.9312 
  20   2.0000      -0.803510       -21.8646 
  21   2.0000      -0.724661       -19.7190 
  22   2.0000      -0.706278       -19.2188 
  23   2.0000      -0.699918       -19.0457 
  24   2.0000      -0.693000       -18.8575 
  25   2.0000      -0.677960       -18.4482 
  26   2.0000      -0.638061       -17.3625 
  27   2.0000      -0.630399       -17.1540 
  28   2.0000      -0.614623       -16.7247 
  29   2.0000      -0.602134       -16.3849 
  30   2.0000      -0.580058       -15.7842 
  31   2.0000      -0.555337       -15.1115 
  32   2.0000      -0.536669       -14.6035 
  33   2.0000      -0.528505       -14.3813 
  34   2.0000      -0.512231       -13.9385 
  35   2.0000      -0.483394       -13.1538 
  36   2.0000      -0.462292       -12.5796 
  37   2.0000      -0.459103       -12.4928 
  38   2.0000      -0.451334       -12.2814 
  39   2.0000      -0.353641        -9.6230 
  40   2.0000      -0.308467        -8.3938 
  41   0.0000       0.088261         2.4017 
  42   0.0000       0.144935         3.9439 
  43   0.0000       0.221991         6.0407 
  44   0.0000       0.228924         6.2293 
  45   0.0000       0.232603         6.3295 
  46   0.0000       0.242981         6.6118 
  47   0.0000       0.266021         7.2388 
  48   0.0000       0.291953         7.9444 
  49   0.0000       0.318046         8.6545 
  50   0.0000       0.329336         8.9617 
  51   0.0000       0.339556         9.2398 
  52   0.0000       0.373605        10.1663 
  53   0.0000       0.415914        11.3176 
  54   0.0000       0.430584        11.7168 
  55   0.0000       0.433568        11.7980 
  56   0.0000       0.447641        12.1809 
  57   0.0000       0.488743        13.2994 
  58   0.0000       0.509457        13.8630 
  59   0.0000       0.537273        14.6199 
  60   0.0000       0.567972        15.4553 
  61   0.0000       0.593633        16.1536 
  62   0.0000       0.698062        18.9952 
  63   0.0000       0.720547        19.6071 
  64   0.0000       0.741320        20.1723 
  65   0.0000       0.759088        20.6558 
  66   0.0000       0.765217        20.8226 
  67   0.0000       0.776360        21.1258 
  68   0.0000       0.794232        21.6121 
  69   0.0000       0.821171        22.3452 
  70   0.0000       0.826956        22.5026 
  71   0.0000       0.828823        22.5534 
  72   0.0000       0.838178        22.8080 
  73   0.0000       0.849042        23.1036 
  74   0.0000       0.868731        23.6394 
  75   0.0000       0.899606        24.4795 
  76   0.0000       0.917970        24.9792 
  77   0.0000       0.933987        25.4151 
  78   0.0000       0.963936        26.2300 
  79   0.0000       0.981153        26.6985 
  80   0.0000       1.041497        28.3406 
  81   0.0000       1.047104        28.4931 
  82   0.0000       1.081973        29.4420 
  83   0.0000       1.083734        29.4899 
  84   0.0000       1.099960        29.9314 
  85   0.0000       1.110455        30.2170 
  86   0.0000       1.117365        30.4050 
  87   0.0000       1.127980        30.6939 
  88   0.0000       1.158527        31.5251 
  89   0.0000       1.172922        31.9168 
  90   0.0000       1.184935        32.2437 
  91   0.0000       1.193479        32.4762 
  92   0.0000       1.202616        32.7249 
  93   0.0000       1.206792        32.8385 
  94   0.0000       1.217247        33.1230 
  95   0.0000       1.242135        33.8002 
  96   0.0000       1.244257        33.8580 
  97   0.0000       1.258117        34.2351 
  98   0.0000       1.290819        35.1250 
  99   0.0000       1.310833        35.6696 
 100   0.0000       1.317316        35.8460 
 101   0.0000       1.338102        36.4116 
 102   0.0000       1.363321        37.0978 
 103   0.0000       1.380223        37.5578 
 104   0.0000       1.424843        38.7720 
 105   0.0000       1.441379        39.2219 
 106   0.0000       1.465540        39.8794 
 107   0.0000       1.497613        40.7521 
 108   0.0000       1.539223        41.8844 
 109   0.0000       1.573461        42.8160 
 110   0.0000       1.584671        43.1211 
 111   0.0000       1.594478        43.3879 
 112   0.0000       1.631558        44.3970 
 113   0.0000       1.660003        45.1710 
 114   0.0000       1.674352        45.5614 
 115   0.0000       1.708198        46.4824 
 116   0.0000       1.722048        46.8593 
 117   0.0000       1.757686        47.8291 
 118   0.0000       1.769721        48.1566 
 119   0.0000       1.828682        49.7610 
 120   0.0000       1.901111        51.7319 
 121   0.0000       1.973681        53.7066 
 122   0.0000       1.976963        53.7959 
 123   0.0000       1.997322        54.3499 
 124   0.0000       2.036455        55.4148 
 125   0.0000       2.051462        55.8231 
 126   0.0000       2.066100        56.2214 
 127   0.0000       2.072219        56.3879 
 128   0.0000       2.085419        56.7471 
 129   0.0000       2.100602        57.1603 
 130   0.0000       2.110504        57.4297 
 131   0.0000       2.135254        58.1032 
 132   0.0000       2.159749        58.7698 
 133   0.0000       2.175230        59.1910 
 134   0.0000       2.205716        60.0206 
 135   0.0000       2.228626        60.6440 
 136   0.0000       2.242936        61.0334 
 137   0.0000       2.284860        62.1742 
 138   0.0000       2.290866        62.3376 
 139   0.0000       2.329799        63.3970 
 140   0.0000       2.353712        64.0478 
 141   0.0000       2.409594        65.5684 
 142   0.0000       2.438109        66.3443 
 143   0.0000       2.445336        66.5410 
 144   0.0000       2.505891        68.1888 
 145   0.0000       2.520771        68.5937 
 146   0.0000       2.555157        69.5294 
 147   0.0000       2.580984        70.2321 
 148   0.0000       2.606954        70.9388 
 149   0.0000       2.635949        71.7278 
 150   0.0000       2.714211        73.8574 
 151   0.0000       2.720161        74.0193 
 152   0.0000       2.744083        74.6703 
 153   0.0000       2.759682        75.0948 
 154   0.0000       2.806566        76.3705 
 155   0.0000       2.836297        77.1796 
 156   0.0000       2.908940        79.1563 
 157   0.0000       2.943555        80.0982 
 158   0.0000       2.956069        80.4387 
 159   0.0000       2.977133        81.0119 
 160   0.0000       3.022722        82.2525 
 161   0.0000       3.028925        82.4212 
 162   0.0000       3.048966        82.9666 
 163   0.0000       3.074768        83.6687 
 164   0.0000       3.130852        85.1948 
 165   0.0000       3.189272        86.7845 
 166   0.0000       3.219864        87.6170 
 167   0.0000       3.242769        88.2402 
 168   0.0000       3.356057        91.3230 
 169   0.0000       3.443320        93.6975 
 170   0.0000       3.592661        97.7613 
 171   0.0000       3.802080       103.4598 

                    ********************************
                    * MULLIKEN POPULATION ANALYSIS *
                    ********************************

-----------------------
MULLIKEN ATOMIC CHARGES
-----------------------
   0 C :   -0.256253
   1 C :    0.346245
   2 C :   -0.154351
   3 C :   -0.205519
   4 C :   -0.246348
   5 C :   -0.148554
   6 H :    0.209683
   7 H :    0.256045
   8 C :    0.893212
   9 H :    0.204401
  10 N :   -1.001144
  11 O :   -0.652944
  12 O :   -0.768508
  13 H :    0.482902
  14 H :    0.219440
  15 H :    0.451469
  16 H :    0.381239
  17 H :    0.522283
  18 O :   -0.962449
  19 H :    0.429153
Sum of atomic charges:    0.0000000

--------------------------------
MULLIKEN REDUCED ORBITAL CHARGES
--------------------------------
  0 C s       :     3.149331  s :     3.149331
      pz      :     1.099287  p :     3.063780
      px      :     0.901490
      py      :     1.063004
      dz2     :     0.004573  d :     0.043142
      dxz     :     0.004477
      dyz     :     0.003690
      dx2y2   :     0.015761
      dxy     :     0.014640
  1 C s       :     3.057242  s :     3.057242
      pz      :     0.827339  p :     2.523764
      px      :     0.908069
      py      :     0.788356
      dz2     :     0.005505  d :     0.072749
      dxz     :     0.010181
      dyz     :     0.015058
      dx2y2   :     0.020344
      dxy     :     0.021662
  2 C s       :     3.181094  s :     3.181094
      pz      :     0.892476  p :     2.924663
      px      :     1.098132
      py      :     0.934055
      dz2     :     0.004762  d :     0.048594
      dxz     :     0.003030
      dyz     :     0.009222
      dx2y2   :     0.018064
      dxy     :     0.013516
  3 C s       :     3.127549  s :     3.127549
      pz      :     1.183653  p :     3.033625
      px      :     0.907089
      py      :     0.942883
      dz2     :     0.004290  d :     0.044345
      dxz     :     0.002552
      dyz     :     0.006133
      dx2y2   :     0.018136
      dxy     :     0.013234
  4 C s       :     3.165780  s :     3.165780
      pz      :     1.071535  p :     3.035934
      px      :     0.946111
      py      :     1.018287
      dz2     :     0.004572  d :     0.044634
      dxz     :     0.005000
      dyz     :     0.003506
      dx2y2   :     0.014711
      dxy     :     0.016845
  5 C s       :     3.168319  s :     3.168319
      pz      :     0.884315  p :     2.932154
      px      :     0.968162
      py      :     1.079677
      dz2     :     0.004777  d :     0.048081
      dxz     :     0.008206
      dyz     :     0.004253
      dx2y2   :     0.013489
      dxy     :     0.017356
  6 H s       :     0.790317  s :     0.790317
  7 H s       :     0.743955  s :     0.743955
  8 C s       :     2.887819  s :     2.887819
      pz      :     0.629309  p :     2.078405
      px      :     0.860932
      py      :     0.588165
      dz2     :     0.008737  d :     0.140564
      dxz     :     0.014965
      dyz     :     0.025840
      dx2y2   :     0.054543
      dxy     :     0.036479
  9 H s       :     0.795599  s :     0.795599
 10 N s       :     3.688071  s :     3.688071
      pz      :     1.777625  p :     4.276746
      px      :     1.311138
      py      :     1.187984
      dz2     :     0.002655  d :     0.036327
      dxz     :     0.005519
      dyz     :     0.006306
      dx2y2   :     0.011179
      dxy     :     0.010669
 11 O s       :     3.892321  s :     3.892321
      pz      :     1.532916  p :     4.730032
      px      :     1.654811
      py      :     1.542304
      dz2     :     0.002968  d :     0.030591
      dxz     :     0.004981
      dyz     :     0.006805
      dx2y2   :     0.006159
      dxy     :     0.009678
 12 O s       :     3.901510  s :     3.901510
      pz      :     1.864699  p :     4.834726
      px      :     1.432180
      py      :     1.537847
      dz2     :     0.005029  d :     0.032272
      dxz     :     0.000512
      dyz     :     0.004858
      dx2y2   :     0.016540
      dxy     :     0.005333
 13 H s       :     0.517098  s :     0.517098
 14 H s       :     0.780560  s :     0.780560
 15 H s       :     0.548531  s :     0.548531
 16 H s       :     0.618761  s :     0.618761
 17 H s       :     0.477717  s :     0.477717
 18 O s       :     3.904784  s :     3.904784
      pz      :     1.499297  p :     5.027727
      px      :     1.882410
      py      :     1.646019
      dz2     :     0.015037  d :     0.029938
      dxz     :     0.001016
      dyz     :     0.002498
      dx2y2   :     0.003735
      dxy     :     0.007652
 19 H s       :     0.570847  s :     0.570847


                     *******************************
                     * LOEWDIN POPULATION ANALYSIS *
                     *******************************

----------------------
LOEWDIN ATOMIC CHARGES
----------------------
   0 C :   -0.190576
   1 C :    0.100576
   2 C :   -0.072360
   3 C :   -0.142240
   4 C :   -0.187570
   5 C :   -0.064919
   6 H :    0.141349
   7 H :    0.161556
   8 C :    0.281226
   9 H :    0.138166
  10 N :   -0.448656
  11 O :   -0.358984
  12 O :   -0.369077
  13 H :    0.358700
  14 H :    0.146310
  15 H :    0.285018
  16 H :    0.260682
  17 H :    0.322568
  18 O :   -0.679122
  19 H :    0.317356

-------------------------------
LOEWDIN REDUCED ORBITAL CHARGES
-------------------------------
  0 C s       :     2.906252  s :     2.906252
      pz      :     1.082844  p :     3.196336
      px      :     1.034925
      py      :     1.078568
      dz2     :     0.007183  d :     0.087987
      dxz     :     0.008450
      dyz     :     0.005696
      dx2y2   :     0.034695
      dxy     :     0.031963
  1 C s       :     2.850171  s :     2.850171
      pz      :     0.843982  p :     2.894381
      px      :     1.053691
      py      :     0.996708
      dz2     :     0.009698  d :     0.154872
      dxz     :     0.019990
      dyz     :     0.030962
      dx2y2   :     0.046186
      dxy     :     0.048036
  2 C s       :     2.917542  s :     2.917542
      pz      :     0.892987  p :     3.058262
      px      :     1.088657
      py      :     1.076618
      dz2     :     0.007125  d :     0.096556
      dxz     :     0.004211
      dyz     :     0.018366
      dx2y2   :     0.037421
      dxy     :     0.029433
  3 C s       :     2.863271  s :     2.863271
      pz      :     1.133097  p :     3.179669
      px      :     0.999102
      py      :     1.047469
      dz2     :     0.007748  d :     0.099300
      dxz     :     0.004881
      dyz     :     0.011785
      dx2y2   :     0.042591
      dxy     :     0.032295
  4 C s       :     2.906642  s :     2.906642
      pz      :     1.056218  p :     3.189749
      px      :     1.063752
      py      :     1.069779
      dz2     :     0.007166  d :     0.091179
      dxz     :     0.009273
      dyz     :     0.005752
      dx2y2   :     0.032457
      dxy     :     0.036531
  5 C s       :     2.914293  s :     2.914293
      pz      :     0.891448  p :     3.054635
      px      :     1.079358
      py      :     1.083830
      dz2     :     0.007109  d :     0.095991
      dxz     :     0.015627
      dyz     :     0.007738
      dx2y2   :     0.029275
      dxy     :     0.036242
  6 H s       :     0.858651  s :     0.858651
  7 H s       :     0.838444  s :     0.838444
  8 C s       :     2.836828  s :     2.836828
      pz      :     0.670608  p :     2.581044
      px      :     1.014298
      py      :     0.896137
      dz2     :     0.019036  d :     0.300902
      dxz     :     0.028302
      dyz     :     0.051837
      dx2y2   :     0.121650
      dxy     :     0.080077
  9 H s       :     0.861834  s :     0.861834
 10 N s       :     3.195808  s :     3.195808
      pz      :     1.724461  p :     4.189756
      px      :     1.258940
      py      :     1.206355
      dz2     :     0.003785  d :     0.063092
      dxz     :     0.006981
      dyz     :     0.009932
      dx2y2   :     0.021647
      dxy     :     0.020748
 11 O s       :     3.561255  s :     3.561255
      pz      :     1.505045  p :     4.745272
      px      :     1.665212
      py      :     1.575015
      dz2     :     0.006567  d :     0.052458
      dxz     :     0.005530
      dyz     :     0.007889
      dx2y2   :     0.011314
      dxy     :     0.021157
 12 O s       :     3.536077  s :     3.536077
      pz      :     1.834103  p :     4.782115
      px      :     1.397700
      py      :     1.550312
      dz2     :     0.007336  d :     0.050886
      dxz     :     0.001065
      dyz     :     0.006046
      dx2y2   :     0.025769
      dxy     :     0.010671
 13 H s       :     0.641300  s :     0.641300
 14 H s       :     0.853690  s :     0.853690
 15 H s       :     0.714982  s :     0.714982
 16 H s       :     0.739318  s :     0.739318
 17 H s       :     0.677432  s :     0.677432
 18 O s       :     3.618275  s :     3.618275
      pz      :     1.486889  p :     5.024716
      px      :     1.884711
      py      :     1.653116
      dz2     :     0.018402  d :     0.036132
      dxz     :     0.001259
      dyz     :     0.003327
      dx2y2   :     0.004181
      dxy     :     0.008962
 19 H s       :     0.682644  s :     0.682644


                      *****************************
                      * MAYER POPULATION ANALYSIS *
                      *****************************

  NA   - Mulliken gross atomic population
  ZA   - Total nuclear charge
  QA   - Mulliken gross atomic charge
  VA   - Mayer's total valence
  BVA  - Mayer's bonded valence
  FA   - Mayer's free valence

  ATOM       NA         ZA         QA         VA         BVA        FA
  0 C      6.2563     6.0000    -0.2563     3.8686     3.8686     0.0000
  1 C      5.6538     6.0000     0.3462     3.8135     3.8135    -0.0000
  2 C      6.1544     6.0000    -0.1544     3.9052     3.9052    -0.0000
  3 C      6.2055     6.0000    -0.2055     3.8691     3.8691    -0.0000
  4 C      6.2463     6.0000    -0.2463     3.8790     3.8790    -0.0000
  5 C      6.1486     6.0000    -0.1486     3.8692     3.8692    -0.0000
  6 H      0.7903     1.0000     0.2097     0.9264     0.9264     0.0000
  7 H      0.7440     1.0000     0.2560     0.9091     0.9091     0.0000
  8 C      5.1068     6.0000     0.8932     3.7307     3.7307     0.0000
  9 H      0.7956     1.0000     0.2044     0.9269     0.9269     0.0000
 10 N      8.0011     7.0000    -1.0011     2.6260     2.6260     0.0000
 11 O      8.6529     8.0000    -0.6529     1.8320     1.8320     0.0000
 12 O      8.7685     8.0000    -0.7685     1.7139     1.7139     0.0000
 13 H      0.5171     1.0000     0.4829     0.7538     0.7538     0.0000
 14 H      0.7806     1.0000     0.2194     0.9207     0.9207     0.0000
 15 H      0.5485     1.0000     0.4515     0.7891     0.7891     0.0000
 16 H      0.6188     1.0000     0.3812     0.8262     0.8262    -0.0000
 17 H      0.4777     1.0000     0.5223     0.6961     0.6961    -0.0000
 18 O      8.9624     8.0000    -0.9624     1.4694     1.4694     0.0000
 19 H      0.5708     1.0000     0.4292     0.7847     0.7847     0.0000

  Mayer bond orders larger than 0.100000
B(  0-C ,  1-C ) :   1.3651 B(  0-C ,  2-C ) :   1.4974 B(  0-C ,  9-H ) :   0.9367 
B(  1-C ,  3-C ) :   1.3748 B(  1-C , 10-N ) :   0.9842 B(  2-C ,  4-C ) :   1.3897 
B(  2-C , 14-H ) :   0.9353 B(  3-C ,  5-C ) :   1.3694 B(  3-C ,  8-C ) :   1.0593 
B(  4-C ,  5-C ) :   1.4902 B(  4-C ,  6-H ) :   0.9392 B(  5-C ,  7-H ) :   0.9132 
B(  8-C , 11-O ) :   1.6942 B(  8-C , 12-O ) :   0.9645 B( 10-N , 15-H ) :   0.7402 
B( 10-N , 16-H ) :   0.8251 B( 12-O , 13-H ) :   0.7243 B( 17-H , 18-O ) :   0.6711 
B( 18-O , 19-H ) :   0.7874 

-------
TIMINGS
-------

Total SCF time: 0 days 0 hours 0 min 12 sec 

Total time                  ....      12.431 sec
Sum of individual times     ....      12.288 sec  ( 98.9%)

Fock matrix formation       ....      12.018 sec  ( 96.7%)
Diagonalization             ....       0.027 sec  (  0.2%)
Density matrix formation    ....       0.002 sec  (  0.0%)
Population analysis         ....       0.012 sec  (  0.1%)
Initial guess               ....       0.093 sec  (  0.7%)
Orbital Transformation      ....       0.000 sec  (  0.0%)
Orbital Orthonormalization  ....       0.000 sec  (  0.0%)
DIIS solution               ....       0.017 sec  (  0.1%)
SOSCF solution              ....       0.017 sec  (  0.1%)

Maximum memory used throughout the entire SCF-calculation: 229.0 MB

-------------------------   --------------------
FINAL SINGLE POINT ENERGY      -549.362119881306
-------------------------   --------------------

Storing actual gbw-file in scan_c2_h.001.gbw ... done

                            ***************************************
                            *     ORCA property calculations      *
                            ***************************************

                                    ---------------------
                                    Active property flags
                                    ---------------------
   (+) Dipole Moment


------------------------------------------------------------------------------
                       ORCA ELECTRIC PROPERTIES CALCULATION
------------------------------------------------------------------------------

Dipole Moment Calculation                       ... on
Quadrupole Moment Calculation                   ... off
Polarizability Calculation                      ... off
GBWName                                         ... scan_c2_h.gbw
Electron density                                ... scan_c2_h.scfp
The origin for moment calculation is the CENTER OF MASS  = ( 3.656466,  1.468310 -0.678800)

-------------
DIPOLE MOMENT
-------------
                                X             Y             Z
Electronic contribution:      3.58627       3.16131       2.78251
Nuclear contribution   :     -3.91274      -3.46806      -1.73168
                        -----------------------------------------
Total Dipole Moment    :     -0.32647      -0.30676       1.05083
                        -----------------------------------------
Magnitude (a.u.)       :      1.14233
Magnitude (Debye)      :      2.90357



--------------------
Rotational spectrum 
--------------------
 
Rotational constants in cm-1:     0.038784     0.032810     0.022331 
Rotational constants in MHz :  1162.701510   983.606823   669.452048 

 Dipole components along the rotational axes: 
x,y,z [a.u.] :    -0.354044     0.180689     1.070946 
x,y,z [Debye]:    -0.899908     0.459274     2.722127 

 

         *************************************************************
                                TRAJECTORY STEP   2
                  B  :   2.10000000
         *************************************************************
---------------------------------
CARTESIAN COORDINATES (ANGSTROEM)
---------------------------------
  C      0.000000    0.000000    0.000000
  C      1.410409    0.000000    0.000000
  C     -0.724320    1.183586    0.000000
  C      2.073292    1.253208   -0.044708
  C     -0.064411    2.419058   -0.039207
  C      1.323048    2.445080   -0.047743
  H     -0.629466    3.347001   -0.041088
  H      1.852429    3.392160   -0.071804
  C      3.545723    1.317753    0.000066
  H     -0.520004   -0.956528    0.019731
  N      2.085359   -1.205080   -0.068653
  O      4.312423    0.364488    0.139874
  O      4.032585    2.583306   -0.125203
  H      5.005653    2.480252   -0.067898
  H     -1.811547    1.143588    0.009074
  H      3.068328   -1.165755    0.178380
  H      1.581522   -2.004078    0.295737
  H      2.085359   -1.085636   -2.165254
  O      2.085359   -1.031193   -3.120904
  H      2.537607   -1.825004   -3.406504

----------------------------
CARTESIAN COORDINATES (A.U.)
----------------------------
  NO LB      ZA    FRAG     MASS         X           Y           Z
   0 C     6.0000    0    12.011    0.000000    0.000000    0.000000
   1 C     6.0000    0    12.011    2.665286    0.000000    0.000000
   2 C     6.0000    0    12.011   -1.368767    2.236654    0.000000
   3 C     6.0000    0    12.011    3.917954    2.368220   -0.084487
   4 C     6.0000    0    12.011   -0.121718    4.571357   -0.074090
   5 C     6.0000    0    12.011    2.500199    4.620531   -0.090221
   6 H     1.0000    0     1.008   -1.189519    6.324915   -0.077645
   7 H     1.0000    0     1.008    3.500584    6.410253   -0.135689
   8 C     6.0000    0    12.011    6.700446    2.490192    0.000125
   9 H     1.0000    0     1.008   -0.982664   -1.807577    0.037287
  10 N     7.0000    0    14.007    3.940757   -2.277270   -0.129736
  11 O     8.0000    0    15.999    8.149298    0.688782    0.264323
  12 O     8.0000    0    15.999    7.620482    4.881740   -0.236599
  13 H     1.0000    0     1.008    9.459313    4.686996   -0.128308
  14 H     1.0000    0     1.008   -3.423328    2.161068    0.017147
  15 H     1.0000    0     1.008    5.798299   -2.202959    0.337089
  16 H     1.0000    0     1.008    2.988644   -3.787158    0.558863
  17 H     1.0000    0     1.008    3.940757   -2.051555   -4.091737
  18 O     8.0000    0    15.999    3.940757   -1.948672   -5.897654
  19 H     1.0000    0     1.008    4.795383   -3.448758   -6.437359

--------------------------------
INTERNAL COORDINATES (ANGSTROEM)
--------------------------------
 C      0   0   0     0.000000000000     0.00000000     0.00000000
 C      1   0   0     1.410408792387     0.00000000     0.00000000
 C      1   2   0     1.387629674561   121.46540976     0.00000000
 C      2   1   3     1.418429715822   117.86149259   357.95682680
 C      3   1   2     1.401216550379   120.41314464     1.85928728
 C      5   3   1     1.387728922094   119.18088952   358.56672225
 H      5   3   1     1.086448109445   120.54301814   179.88964476
 H      6   5   3     1.085257810950   120.27815199   180.37435074
 C      4   2   1     1.474525319058   120.29082617   177.88235003
 H      1   2   3     1.088916721971   118.52499331   181.18172947
 N      2   1   3     1.382927159506   119.21307977   183.26061362
 O      9   4   2     1.231295327431   126.25299933   356.29999903
 O      9   4   2     1.361745810407   113.26023456   176.60892359
 H     13   9   4     0.980186199946   104.58659711   179.32147663
 H      3   1   2     1.088000665320   119.35735619   180.54826763
 H     11   2   1     1.014297666448   115.28426224   195.45494424
 H     11   2   1     1.012437828384   115.27373933   333.44819984
 H     11   2   1     2.100000000000    90.00000000    90.00000000
 O     18  11   2     0.957200000000   180.00000000    90.00000000
 H     19  11   2     0.957200000000   104.52000000   180.00000000

---------------------------
INTERNAL COORDINATES (A.U.)
---------------------------
 C      0   0   0     0.000000000000     0.00000000     0.00000000
 C      1   0   0     2.665286354486     0.00000000     0.00000000
 C      1   2   0     2.622240060223   121.46540976     0.00000000
 C      2   1   3     2.680443703119   117.86149259   357.95682680
 C      3   1   2     2.647915534534   120.41314464     1.85928728
 C      5   3   1     2.622427610879   119.18088952   358.56672225
 H      5   3   1     2.053089385568   120.54301814   179.88964476
 H      6   5   3     2.050840047394   120.27815199   180.37435074
 C      4   2   1     2.786449030552   120.29082617   177.88235003
 H      1   2   3     2.057754387172   118.52499331   181.18172947
 N      2   1   3     2.613353594628   119.21307977   183.26061362
 O      9   4   2     2.326810958821   126.25299933   356.29999903
 O      9   4   2     2.573326645684   113.26023456   176.60892359
 H     13   9   4     1.852283478147   104.58659711   179.32147663
 H      3   1   2     2.056023290979   119.35735619   180.54826763
 H     11   2   1     1.916744807862   115.28426224   195.45494424
 H     11   2   1     1.913230223268   115.27373933   333.44819984
 H     11   2   1     3.968424881235    90.00000000    90.00000000
 O     18  11   2     1.808845855389   180.00000000    90.00000000
 H     19  11   2     1.808845855389   104.52000000   180.00000000



           ************************************************************
           *        Program running with 4 parallel MPI-processes     *
           *              working on a common directory               *
           ************************************************************
------------------------------------------------------------------------------
                   ___                                                        
                  /   \      - P O W E R E D   B Y -                         
                 /     \                                                     
                 |  |  |   _    _      __       _____    __    __             
                 |  |  |  | |  | |    /  \     |  _  \  |  |  /  |          
                  \  \/   | |  | |   /    \    | | | |  |  | /  /          
                 / \  \   | |__| |  /  /\  \   | |_| |  |  |/  /          
                |  |  |   |  __  | /  /__\  \  |    /   |      \           
                |  |  |   | |  | | |   __   |  |    \   |  |\   \          
                \     /   | |  | | |  |  |  |  | |\  \  |  | \   \       
                 \___/    |_|  |_| |__|  |__|  |_| \__\ |__|  \__/        
                                                                              
                      - O R C A' S   B I G   F R I E N D -                    
                                      &                                       
                       - I N T E G R A L  F E E D E R -                       
                                                                              
 v1 FN, 2020, v2 2021                                                         
------------------------------------------------------------------------------


Reading SHARK input file scan_c2_h.SHARKINP.tmp ... ok
----------------------
SHARK INTEGRAL PACKAGE
----------------------

Number of atoms                             ...     20
Number of basis functions                   ...    172
Number of shells                            ...     84
Maximum angular momentum                    ...      2
Integral batch strategy                     ... SHARK/LIBINT Hybrid
RI-J (if used) integral strategy            ... SPLIT-RIJ (Revised 2003 algorithm where possible)
Printlevel                                  ...      1
Contraction scheme used                     ... SEGMENTED contraction
Coulomb Range Separation                    ... NOT USED
Exchange Range Separation                   ... NOT USED
Finite Nucleus Model                        ... NOT USED
Auxiliary Coulomb fitting basis             ... NOT available
Auxiliary J/K fitting basis                 ... NOT available
Auxiliary Correlation fitting basis         ... NOT available
Auxiliary 'external' fitting basis          ... NOT available
Integral threshold                          ...     1.000000e-10
Primitive cut-off                           ...     1.000000e-11
Primitive pair pre-selection threshold      ...     1.000000e-11

Calculating pre-screening integrals         ... done (  0.0 sec) Dimension = 84
Organizing shell pair data                  ... done (  0.0 sec)
Shell pair information
Total number of shell pairs                 ...      3570
Shell pairs after pre-screening             ...      3180
Total number of primitive shell pairs       ...     20559
Primitive shell pairs kept                  ...     11231
          la=0 lb=0:   1128 shell pairs
          la=1 lb=0:   1039 shell pairs
          la=1 lb=1:    245 shell pairs
          la=2 lb=0:    477 shell pairs
          la=2 lb=1:    232 shell pairs
          la=2 lb=2:     59 shell pairs

Calculating one electron integrals          ... done (  0.0 sec)
Calculating Nuclear repulsion               ... done (  0.0 sec) ENN=    601.663398420509 Eh

SHARK setup successfully completed in   0.1 seconds

Maximum memory used throughout the entire GTOINT-calculation: 11.0 MB


           ************************************************************
           *        Program running with 4 parallel MPI-processes     *
           *              working on a common directory               *
           ************************************************************

Diagonalization of the overlap matrix:
Smallest eigenvalue                        ... 4.201e-04
Time for diagonalization                   ...    0.003 sec
Threshold for overlap eigenvalues          ... 1.000e-08
Number of eigenvalues below threshold      ... 0
Time for construction of square roots      ...    0.001 sec
Total time needed                          ...    0.004 sec

--------------
SCF ITERATIONS
--------------
ITER       Energy         Delta-E        Max-DP      RMS-DP      [F,P]     Damp
               ***  Starting incremental Fock matrix formation  ***
                      *** Initiating the SOSCF procedure ***
                      *** Re-Reading the Fockian *** 
                      *** Removing any level shift *** 
ITER      Energy       Delta-E        Grad      Rot      Max-DP    RMS-DP
  0   -549.36286357 -549.3628635744  0.002085  0.002085  0.005166  0.000119
               *** Restarting incremental Fock matrix formation ***
  1   -549.36295602  -0.0000924485  0.000579  0.000540  0.001711  0.000042
  2   -549.36296677  -0.0000107489  0.000198  0.000466  0.000897  0.000019
  3   -549.36296814  -0.0000013632  0.000044  0.000118  0.000212  0.000005
                 **** Energy Check signals convergence ****
              ***Rediagonalizing the Fockian in SOSCF/NRSCF***

               *****************************************************
               *                     SUCCESS                       *
               *           SCF CONVERGED AFTER   4 CYCLES          *
               *****************************************************

Total Energy       :         -549.36296826 Eh          -14948.92636 eV
  Last Energy change         ...   -1.2812e-07  Tolerance :   1.0000e-06
  Last MAX-Density change    ...    6.2539e-05  Tolerance :   1.0000e-05
             **** THE GBW FILE WAS UPDATED (scan_c2_h.gbw) ****
             **** DENSITY scan_c2_h.scfp WAS UPDATED ****
             **** ENERGY FILE WAS UPDATED (scan_c2_h.en.tmp) ****
             **** THE GBW FILE WAS UPDATED (scan_c2_h.gbw) ****
             **** DENSITY scan_c2_h.scfp WAS UPDATED ****
Total SCF time: 0 days 0 hours 0 min 4 sec 

Maximum memory used throughout the entire SCF-calculation: 228.8 MB

-------------------------   --------------------
FINAL SINGLE POINT ENERGY      -549.362968263173
-------------------------   --------------------

Storing actual gbw-file in scan_c2_h.002.gbw ... done

                            ***************************************
                            *     ORCA property calculations      *
                            ***************************************

                                    ---------------------
                                    Active property flags
                                    ---------------------
   (+) Dipole Moment


------------------------------------------------------------------------------
                       ORCA ELECTRIC PROPERTIES CALCULATION
------------------------------------------------------------------------------

Dipole Moment Calculation                       ... on
Quadrupole Moment Calculation                   ... off
Polarizability Calculation                      ... off
GBWName                                         ... scan_c2_h.gbw
Electron density                                ... scan_c2_h.scfp
The origin for moment calculation is the CENTER OF MASS  = ( 3.656466,  1.469558 -0.700707)

-------------
DIPOLE MOMENT
-------------
                                X             Y             Z
Electronic contribution:      3.59287       3.14071       2.85526
Nuclear contribution   :     -3.91274      -3.46292      -1.82203
                        -----------------------------------------
Total Dipole Moment    :     -0.31987      -0.32221       1.03323
                        -----------------------------------------
Magnitude (a.u.)       :      1.12858
Magnitude (Debye)      :      2.86863



--------------------
Rotational spectrum 
--------------------
 
Rotational constants in cm-1:     0.037980     0.032482     0.022211 
Rotational constants in MHz :  1138.600487   973.773589   665.882160 

 Dipole components along the rotational axes: 
x,y,z [a.u.] :    -0.349290     0.183559     1.057357 
x,y,z [Debye]:    -0.887824     0.466569     2.687589 

 

         *************************************************************
                                TRAJECTORY STEP   3
                  B  :   2.20000000
         *************************************************************
---------------------------------
CARTESIAN COORDINATES (ANGSTROEM)
---------------------------------
  C      0.000000    0.000000    0.000000
  C      1.410409    0.000000    0.000000
  C     -0.724320    1.183586    0.000000
  C      2.073292    1.253208   -0.044708
  C     -0.064411    2.419058   -0.039207
  C      1.323048    2.445080   -0.047743
  H     -0.629466    3.347001   -0.041088
  H      1.852429    3.392160   -0.071804
  C      3.545723    1.317753    0.000066
  H     -0.520004   -0.956528    0.019731
  N      2.085359   -1.205080   -0.068653
  O      4.312423    0.364488    0.139874
  O      4.032585    2.583306   -0.125203
  H      5.005653    2.480252   -0.067898
  H     -1.811547    1.143588    0.009074
  H      3.068328   -1.165755    0.178380
  H      1.581522   -2.004078    0.295737
  H      2.085359   -1.079949   -2.265092
  O      2.085359   -1.025505   -3.220742
  H      2.537607   -1.819316   -3.506342

----------------------------
CARTESIAN COORDINATES (A.U.)
----------------------------
  NO LB      ZA    FRAG     MASS         X           Y           Z
   0 C     6.0000    0    12.011    0.000000    0.000000    0.000000
   1 C     6.0000    0    12.011    2.665286    0.000000    0.000000
   2 C     6.0000    0    12.011   -1.368767    2.236654    0.000000
   3 C     6.0000    0    12.011    3.917954    2.368220   -0.084487
   4 C     6.0000    0    12.011   -0.121718    4.571357   -0.074090
   5 C     6.0000    0    12.011    2.500199    4.620531   -0.090221
   6 H     1.0000    0     1.008   -1.189519    6.324915   -0.077645
   7 H     1.0000    0     1.008    3.500584    6.410253   -0.135689
   8 C     6.0000    0    12.011    6.700446    2.490192    0.000125
   9 H     1.0000    0     1.008   -0.982664   -1.807577    0.037287
  10 N     7.0000    0    14.007    3.940757   -2.277270   -0.129736
  11 O     8.0000    0    15.999    8.149298    0.688782    0.264323
  12 O     8.0000    0    15.999    7.620482    4.881740   -0.236599
  13 H     1.0000    0     1.008    9.459313    4.686996   -0.128308
  14 H     1.0000    0     1.008   -3.423328    2.161068    0.017147
  15 H     1.0000    0     1.008    5.798299   -2.202959    0.337089
  16 H     1.0000    0     1.008    2.988644   -3.787158    0.558863
  17 H     1.0000    0     1.008    3.940757   -2.040807   -4.280403
  18 O     8.0000    0    15.999    3.940757   -1.937924   -6.086321
  19 H     1.0000    0     1.008    4.795383   -3.438009   -6.626026

--------------------------------
INTERNAL COORDINATES (ANGSTROEM)
--------------------------------
 C      0   0   0     0.000000000000     0.00000000     0.00000000
 C      1   0   0     1.410408792387     0.00000000     0.00000000
 C      1   2   0     1.387629674561   121.46540976     0.00000000
 C      2   1   3     1.418429715822   117.86149259   357.95682680
 C      3   1   2     1.401216550379   120.41314464     1.85928728
 C      5   3   1     1.387728922094   119.18088952   358.56672225
 H      5   3   1     1.086448109445   120.54301814   179.88964476
 H      6   5   3     1.085257810950   120.27815199   180.37435074
 C      4   2   1     1.474525319058   120.29082617   177.88235003
 H      1   2   3     1.088916721971   118.52499331   181.18172947
 N      2   1   3     1.382927159506   119.21307977   183.26061362
 O      9   4   2     1.231295327431   126.25299933   356.29999903
 O      9   4   2     1.361745810407   113.26023456   176.60892359
 H     13   9   4     0.980186199946   104.58659711   179.32147663
 H      3   1   2     1.088000665320   119.35735619   180.54826763
 H     11   2   1     1.014297666448   115.28426224   195.45494424
 H     11   2   1     1.012437828384   115.27373933   333.44819984
 H     11   2   1     2.200000000000    90.00000000    90.00000000
 O     18  11   2     0.957200000000   180.00000000    90.00000000
 H     19  11   2     0.957200000000   104.52000000   180.00000000

---------------------------
INTERNAL COORDINATES (A.U.)
---------------------------
 C      0   0   0     0.000000000000     0.00000000     0.00000000
 C      1   0   0     2.665286354486     0.00000000     0.00000000
 C      1   2   0     2.622240060223   121.46540976     0.00000000
 C      2   1   3     2.680443703119   117.86149259   357.95682680
 C      3   1   2     2.647915534534   120.41314464     1.85928728
 C      5   3   1     2.622427610879   119.18088952   358.56672225
 H      5   3   1     2.053089385568   120.54301814   179.88964476
 H      6   5   3     2.050840047394   120.27815199   180.37435074
 C      4   2   1     2.786449030552   120.29082617   177.88235003
 H      1   2   3     2.057754387172   118.52499331   181.18172947
 N      2   1   3     2.613353594628   119.21307977   183.26061362
 O      9   4   2     2.326810958821   126.25299933   356.29999903
 O      9   4   2     2.573326645684   113.26023456   176.60892359
 H     13   9   4     1.852283478147   104.58659711   179.32147663
 H      3   1   2     2.056023290979   119.35735619   180.54826763
 H     11   2   1     1.916744807862   115.28426224   195.45494424
 H     11   2   1     1.913230223268   115.27373933   333.44819984
 H     11   2   1     4.157397494627    90.00000000    90.00000000
 O     18  11   2     1.808845855389   180.00000000    90.00000000
 H     19  11   2     1.808845855389   104.52000000   180.00000000



           ************************************************************
           *        Program running with 4 parallel MPI-processes     *
           *              working on a common directory               *
           ************************************************************
------------------------------------------------------------------------------
                   ___                                                        
                  /   \      - P O W E R E D   B Y -                         
                 /     \                                                     
                 |  |  |   _    _      __       _____    __    __             
                 |  |  |  | |  | |    /  \     |  _  \  |  |  /  |          
                  \  \/   | |  | |   /    \    | | | |  |  | /  /          
                 / \  \   | |__| |  /  /\  \   | |_| |  |  |/  /          
                |  |  |   |  __  | /  /__\  \  |    /   |      \           
                |  |  |   | |  | | |   __   |  |    \   |  |\   \          
                \     /   | |  | | |  |  |  |  | |\  \  |  | \   \       
                 \___/    |_|  |_| |__|  |__|  |_| \__\ |__|  \__/        
                                                                              
                      - O R C A' S   B I G   F R I E N D -                    
                                      &                                       
                       - I N T E G R A L  F E E D E R -                       
                                                                              
 v1 FN, 2020, v2 2021                                                         
------------------------------------------------------------------------------


Reading SHARK input file scan_c2_h.SHARKINP.tmp ... ok
----------------------
SHARK INTEGRAL PACKAGE
----------------------

Number of atoms                             ...     20
Number of basis functions                   ...    172
Number of shells                            ...     84
Maximum angular momentum                    ...      2
Integral batch strategy                     ... SHARK/LIBINT Hybrid
RI-J (if used) integral strategy            ... SPLIT-RIJ (Revised 2003 algorithm where possible)
Printlevel                                  ...      1
Contraction scheme used                     ... SEGMENTED contraction
Coulomb Range Separation                    ... NOT USED
Exchange Range Separation                   ... NOT USED
Finite Nucleus Model                        ... NOT USED
Auxiliary Coulomb fitting basis             ... NOT available
Auxiliary J/K fitting basis                 ... NOT available
Auxiliary Correlation fitting basis         ... NOT available
Auxiliary 'external' fitting basis          ... NOT available
Integral threshold                          ...     1.000000e-10
Primitive cut-off                           ...     1.000000e-11
Primitive pair pre-selection threshold      ...     1.000000e-11

Calculating pre-screening integrals         ... done (  0.0 sec) Dimension = 84
Organizing shell pair data                  ... done (  0.0 sec)
Shell pair information
Total number of shell pairs                 ...      3570
Shell pairs after pre-screening             ...      3174
Total number of primitive shell pairs       ...     20559
Primitive shell pairs kept                  ...     11186
          la=0 lb=0:   1126 shell pairs
          la=1 lb=0:   1039 shell pairs
          la=1 lb=1:    244 shell pairs
          la=2 lb=0:    475 shell pairs
          la=2 lb=1:    232 shell pairs
          la=2 lb=2:     58 shell pairs

Calculating one electron integrals          ... done (  0.0 sec)
Calculating Nuclear repulsion               ... done (  0.0 sec) ENN=    599.892853118669 Eh

SHARK setup successfully completed in   0.1 seconds

Maximum memory used throughout the entire GTOINT-calculation: 10.9 MB


           ************************************************************
           *        Program running with 4 parallel MPI-processes     *
           *              working on a common directory               *
           ************************************************************

Diagonalization of the overlap matrix:
Smallest eigenvalue                        ... 4.206e-04
Time for diagonalization                   ...    0.002 sec
Threshold for overlap eigenvalues          ... 1.000e-08
Number of eigenvalues below threshold      ... 0
Time for construction of square roots      ...    0.001 sec
Total time needed                          ...    0.004 sec

--------------
SCF ITERATIONS
--------------
ITER       Energy         Delta-E        Max-DP      RMS-DP      [F,P]     Damp
               ***  Starting incremental Fock matrix formation  ***
                      *** Initiating the SOSCF procedure ***
                      *** Re-Reading the Fockian *** 
                      *** Removing any level shift *** 
ITER      Energy       Delta-E        Grad      Rot      Max-DP    RMS-DP
  0   -549.36327271 -549.3632727134  0.001743  0.001743  0.004042  0.000109
               *** Restarting incremental Fock matrix formation ***
  1   -549.36333992  -0.0000672051  0.000449  0.000469  0.001505  0.000036
  2   -549.36334758  -0.0000076593  0.000158  0.000426  0.000769  0.000016
                 **** Energy Check signals convergence ****
              ***Rediagonalizing the Fockian in SOSCF/NRSCF***

               *****************************************************
               *                     SUCCESS                       *
               *           SCF CONVERGED AFTER   3 CYCLES          *
               *****************************************************

Total Energy       :         -549.36334856 Eh          -14948.93670 eV
  Last Energy change         ...   -9.8370e-07  Tolerance :   1.0000e-06
  Last MAX-Density change    ...    1.6758e-04  Tolerance :   1.0000e-05
             **** THE GBW FILE WAS UPDATED (scan_c2_h.gbw) ****
             **** DENSITY scan_c2_h.scfp WAS UPDATED ****
             **** ENERGY FILE WAS UPDATED (scan_c2_h.en.tmp) ****
             **** THE GBW FILE WAS UPDATED (scan_c2_h.gbw) ****
             **** DENSITY scan_c2_h.scfp WAS UPDATED ****
Total SCF time: 0 days 0 hours 0 min 4 sec 

Maximum memory used throughout the entire SCF-calculation: 228.8 MB

-------------------------   --------------------
FINAL SINGLE POINT ENERGY      -549.363348561510
-------------------------   --------------------

[...]

-------------
DIPOLE MOMENT
-------------
                                X             Y             Z
Electronic contribution:      3.68176       2.53039       9.73604
Nuclear contribution   :     -3.91274      -3.06144      -8.86926
                        -----------------------------------------
Total Dipole Moment    :     -0.23099      -0.53104       0.86678
                        -----------------------------------------
Magnitude (a.u.)       :      1.04243
Magnitude (Debye)      :      2.64965



--------------------
Rotational spectrum 
--------------------
 
Rotational constants in cm-1:     0.026569     0.007861     0.007194 
Rotational constants in MHz :   796.528433   235.679394   215.661989 

 Dipole components along the rotational axes: 
x,y,z [a.u.] :     0.770753     0.251462     0.655265 
x,y,z [Debye]:     1.959098     0.639165     1.665551 

 

         *************************************************************
                                TRAJECTORY STEP  81
                  B  :  10.00000000
         *************************************************************
---------------------------------
CARTESIAN COORDINATES (ANGSTROEM)
---------------------------------
  C      0.000000    0.000000    0.000000
  C      1.410409    0.000000    0.000000
  C     -0.724320    1.183586    0.000000
  C      2.073292    1.253208   -0.044708
  C     -0.064411    2.419058   -0.039207
  C      1.323048    2.445080   -0.047743
  H     -0.629466    3.347001   -0.041088
  H      1.852429    3.392160   -0.071804
  C      3.545723    1.317753    0.000066
  H     -0.520004   -0.956528    0.019731
  N      2.085359   -1.205080   -0.068653
  O      4.312423    0.364488    0.139874
  O      4.032585    2.583306   -0.125203
  H      5.005653    2.480252   -0.067898
  H     -1.811547    1.143588    0.009074
  H      3.068328   -1.165755    0.178380
  H      1.581522   -2.004078    0.295737
  H      2.085359   -0.636302  -10.052465
  O      2.085359   -0.581859  -11.008115
  H      2.537607   -1.375670  -11.293715

----------------------------
CARTESIAN COORDINATES (A.U.)
----------------------------
  NO LB      ZA    FRAG     MASS         X           Y           Z
   0 C     6.0000    0    12.011    0.000000    0.000000    0.000000
   1 C     6.0000    0    12.011    2.665286    0.000000    0.000000
   2 C     6.0000    0    12.011   -1.368767    2.236654    0.000000
   3 C     6.0000    0    12.011    3.917954    2.368220   -0.084487
   4 C     6.0000    0    12.011   -0.121718    4.571357   -0.074090
   5 C     6.0000    0    12.011    2.500199    4.620531   -0.090221
   6 H     1.0000    0     1.008   -1.189519    6.324915   -0.077645
   7 H     1.0000    0     1.008    3.500584    6.410253   -0.135689
   8 C     6.0000    0    12.011    6.700446    2.490192    0.000125
   9 H     1.0000    0     1.008   -0.982664   -1.807577    0.037287
  10 N     7.0000    0    14.007    3.940757   -2.277270   -0.129736
  11 O     8.0000    0    15.999    8.149298    0.688782    0.264323
  12 O     8.0000    0    15.999    7.620482    4.881740   -0.236599
  13 H     1.0000    0     1.008    9.459313    4.686996   -0.128308
  14 H     1.0000    0     1.008   -3.423328    2.161068    0.017147
  15 H     1.0000    0     1.008    5.798299   -2.202959    0.337089
  16 H     1.0000    0     1.008    2.988644   -3.787158    0.558863
  17 H     1.0000    0     1.008    3.940757   -1.202437  -18.996406
  18 O     8.0000    0    15.999    3.940757   -1.099554  -20.802323
  19 H     1.0000    0     1.008    4.795383   -2.599639  -21.342028

--------------------------------
INTERNAL COORDINATES (ANGSTROEM)
--------------------------------
 C      0   0   0     0.000000000000     0.00000000     0.00000000
 C      1   0   0     1.410408792387     0.00000000     0.00000000
 C      1   2   0     1.387629674561   121.46540976     0.00000000
 C      2   1   3     1.418429715822   117.86149259   357.95682680
 C      3   1   2     1.401216550379   120.41314464     1.85928728
 C      5   3   1     1.387728922094   119.18088952   358.56672225
 H      5   3   1     1.086448109445   120.54301814   179.88964476
 H      6   5   3     1.085257810950   120.27815199   180.37435074
 C      4   2   1     1.474525319058   120.29082617   177.88235003
 H      1   2   3     1.088916721971   118.52499331   181.18172947
 N      2   1   3     1.382927159506   119.21307977   183.26061362
 O      9   4   2     1.231295327431   126.25299933   356.29999903
 O      9   4   2     1.361745810407   113.26023456   176.60892359
 H     13   9   4     0.980186199946   104.58659711   179.32147663
 H      3   1   2     1.088000665320   119.35735619   180.54826763
 H     11   2   1     1.014297666448   115.28426224   195.45494424
 H     11   2   1     1.012437828384   115.27373933   333.44819984
 H     11   2   1    10.000000000000    90.00000000    90.00000000
 O     18  11   2     0.957200000000   180.00000000    90.00000000
 H     19  11   2     0.957200000000   104.52000000   180.00000000

---------------------------
INTERNAL COORDINATES (A.U.)
---------------------------
 C      0   0   0     0.000000000000     0.00000000     0.00000000
 C      1   0   0     2.665286354486     0.00000000     0.00000000
 C      1   2   0     2.622240060223   121.46540976     0.00000000
 C      2   1   3     2.680443703119   117.86149259   357.95682680
 C      3   1   2     2.647915534534   120.41314464     1.85928728
 C      5   3   1     2.622427610879   119.18088952   358.56672225
 H      5   3   1     2.053089385568   120.54301814   179.88964476
 H      6   5   3     2.050840047394   120.27815199   180.37435074
 C      4   2   1     2.786449030552   120.29082617   177.88235003
 H      1   2   3     2.057754387172   118.52499331   181.18172947
 N      2   1   3     2.613353594628   119.21307977   183.26061362
 O      9   4   2     2.326810958821   126.25299933   356.29999903
 O      9   4   2     2.573326645684   113.26023456   176.60892359
 H     13   9   4     1.852283478147   104.58659711   179.32147663
 H      3   1   2     2.056023290979   119.35735619   180.54826763
 H     11   2   1     1.916744807862   115.28426224   195.45494424
 H     11   2   1     1.913230223268   115.27373933   333.44819984
 H     11   2   1    18.897261339213    90.00000000    90.00000000
 O     18  11   2     1.808845855389   180.00000000    90.00000000
 H     19  11   2     1.808845855389   104.52000000   180.00000000



           ************************************************************
           *        Program running with 4 parallel MPI-processes     *
           *              working on a common directory               *
           ************************************************************
------------------------------------------------------------------------------
                   ___                                                        
                  /   \      - P O W E R E D   B Y -                         
                 /     \                                                     
                 |  |  |   _    _      __       _____    __    __             
                 |  |  |  | |  | |    /  \     |  _  \  |  |  /  |          
                  \  \/   | |  | |   /    \    | | | |  |  | /  /          
                 / \  \   | |__| |  /  /\  \   | |_| |  |  |/  /          
                |  |  |   |  __  | /  /__\  \  |    /   |      \           
                |  |  |   | |  | | |   __   |  |    \   |  |\   \          
                \     /   | |  | | |  |  |  |  | |\  \  |  | \   \       
                 \___/    |_|  |_| |__|  |__|  |_| \__\ |__|  \__/        
                                                                              
                      - O R C A' S   B I G   F R I E N D -                    
                                      &                                       
                       - I N T E G R A L  F E E D E R -                       
                                                                              
 v1 FN, 2020, v2 2021                                                         
------------------------------------------------------------------------------


Reading SHARK input file scan_c2_h.SHARKINP.tmp ... ok
----------------------
SHARK INTEGRAL PACKAGE
----------------------

Number of atoms                             ...     20
Number of basis functions                   ...    172
Number of shells                            ...     84
Maximum angular momentum                    ...      2
Integral batch strategy                     ... SHARK/LIBINT Hybrid
RI-J (if used) integral strategy            ... SPLIT-RIJ (Revised 2003 algorithm where possible)
Printlevel                                  ...      1
Contraction scheme used                     ... SEGMENTED contraction
Coulomb Range Separation                    ... NOT USED
Exchange Range Separation                   ... NOT USED
Finite Nucleus Model                        ... NOT USED
Auxiliary Coulomb fitting basis             ... NOT available
Auxiliary J/K fitting basis                 ... NOT available
Auxiliary Correlation fitting basis         ... NOT available
Auxiliary 'external' fitting basis          ... NOT available
Integral threshold                          ...     1.000000e-10
Primitive cut-off                           ...     1.000000e-11
Primitive pair pre-selection threshold      ...     1.000000e-11

Calculating pre-screening integrals         ... done (  0.0 sec) Dimension = 84
Organizing shell pair data                  ... done (  0.0 sec)
Shell pair information
Total number of shell pairs                 ...      3570
Shell pairs after pre-screening             ...      2599
Total number of primitive shell pairs       ...     20559
Primitive shell pairs kept                  ...      9742
          la=0 lb=0:    896 shell pairs
          la=1 lb=0:    849 shell pairs
          la=1 lb=1:    209 shell pairs
          la=2 lb=0:    395 shell pairs
          la=2 lb=1:    198 shell pairs
          la=2 lb=2:     52 shell pairs

Calculating one electron integrals          ... done (  0.0 sec)
Calculating Nuclear repulsion               ... done (  0.0 sec) ENN=    542.801253432707 Eh

SHARK setup successfully completed in   0.1 seconds

Maximum memory used throughout the entire GTOINT-calculation: 10.4 MB


           ************************************************************
           *        Program running with 4 parallel MPI-processes     *
           *              working on a common directory               *
           ************************************************************

Diagonalization of the overlap matrix:
Smallest eigenvalue                        ... 4.305e-04
Time for diagonalization                   ...    0.002 sec
Threshold for overlap eigenvalues          ... 1.000e-08
Number of eigenvalues below threshold      ... 0
Time for construction of square roots      ...    0.001 sec
Total time needed                          ...    0.004 sec

--------------
SCF ITERATIONS
--------------
ITER       Energy         Delta-E        Max-DP      RMS-DP      [F,P]     Damp
               ***  Starting incremental Fock matrix formation  ***
                      *** Initiating the SOSCF procedure ***
                      *** Re-Reading the Fockian *** 
                      *** Removing any level shift *** 
ITER      Energy       Delta-E        Grad      Rot      Max-DP    RMS-DP
  0   -549.35829090 -549.3582909043  0.000005  0.000005  0.000009  0.000000
               *** Restarting incremental Fock matrix formation ***
                 **** Energy Check signals convergence ****
              ***Rediagonalizing the Fockian in SOSCF/NRSCF***

               *****************************************************
               *                     SUCCESS                       *
               *           SCF CONVERGED AFTER   1 CYCLES          *
               *****************************************************

Total Energy       :         -549.35829090 Eh          -14948.79908 eV
  Last Energy change         ...   -5.4683e-10  Tolerance :   1.0000e-06
  Last MAX-Density change    ...    4.5801e-06  Tolerance :   1.0000e-05
             **** THE GBW FILE WAS UPDATED (scan_c2_h.gbw) ****
             **** DENSITY scan_c2_h.scfp WAS UPDATED ****
             **** ENERGY FILE WAS UPDATED (scan_c2_h.en.tmp) ****
             **** THE GBW FILE WAS UPDATED (scan_c2_h.gbw) ****
             **** DENSITY scan_c2_h.scfp WAS UPDATED ****
Total SCF time: 0 days 0 hours 0 min 2 sec 

Maximum memory used throughout the entire SCF-calculation: 228.2 MB

-------------------------   --------------------
FINAL SINGLE POINT ENERGY      -549.358290904870
-------------------------   --------------------

Storing actual gbw-file in scan_c2_h.081.gbw ... done

                            ***************************************
                            *     ORCA property calculations      *
                            ***************************************

                                    ---------------------
                                    Active property flags
                                    ---------------------
   (+) Dipole Moment


------------------------------------------------------------------------------
                       ORCA ELECTRIC PROPERTIES CALCULATION
------------------------------------------------------------------------------

Dipole Moment Calculation                       ... on
Quadrupole Moment Calculation                   ... off
Polarizability Calculation                      ... off
GBWName                                         ... scan_c2_h.gbw
Electron density                                ... scan_c2_h.scfp
The origin for moment calculation is the CENTER OF MASS  = ( 3.656466,  1.568150 -2.431306)

-------------
DIPOLE MOMENT
-------------
                                X             Y             Z
Electronic contribution:      3.68186       2.52503       9.82630
Nuclear contribution   :     -3.91274      -3.05629      -8.95961
                        -----------------------------------------
Total Dipole Moment    :     -0.23088      -0.53126       0.86669
                        -----------------------------------------
Magnitude (a.u.)       :      1.04244
Magnitude (Debye)      :      2.64967



--------------------
Rotational spectrum 
--------------------
 
Rotational constants in cm-1:     0.026564     0.007737     0.007090 
Rotational constants in MHz :   796.372750   231.960798   212.555078 

 Dipole components along the rotational axes: 
x,y,z [a.u.] :     0.772178     0.251425     0.653612 
x,y,z [Debye]:     1.962720     0.639071     1.661350 

 
                              **** TRAJECTORY DONE ***

                         SUMMARY OF THE CALCULATED SURFACE

------------------
TRAJECTORY RESULTS
------------------

Column   1: B

The Calculated Surface using the 'Actual Energy'
   2.00000000 -549.36211988
   2.10000000 -549.36296826
   2.20000000 -549.36334856
   2.30000000 -549.36342902
   2.40000000 -549.36332590
   2.50000000 -549.36311713
   2.60000000 -549.36285291
   2.70000000 -549.36256409
   2.80000000 -549.36226851
   2.90000000 -549.36197585
   3.00000000 -549.36169106
   3.10000000 -549.36141673
   3.20000000 -549.36115443
   3.30000000 -549.36090585
   3.40000000 -549.36067235
   3.50000000 -549.36045531
   3.60000000 -549.36025582
   3.70000000 -549.36007449
   3.80000000 -549.35991136
   3.90000000 -549.35976589
   4.00000000 -549.35963705
   4.10000000 -549.35952342
   4.20000000 -549.35942341
   4.30000000 -549.35933535
   4.40000000 -549.35925759
   4.50000000 -549.35918848
   4.60000000 -549.35912695
   4.70000000 -549.35907172
   4.80000000 -549.35902177
   4.90000000 -549.35897630
   5.00000000 -549.35893466
   5.10000000 -549.35889632
   5.20000000 -549.35886084
   5.30000000 -549.35882788
   5.40000000 -549.35879717
   5.50000000 -549.35876846
   5.60000000 -549.35874156
   5.70000000 -549.35871631
   5.80000000 -549.35869257
   5.90000000 -549.35867021
   6.00000000 -549.35864912
   6.10000000 -549.35862921
   6.20000000 -549.35861040
   6.30000000 -549.35859259
   6.40000000 -549.35857573
   6.50000000 -549.35855974
   6.60000000 -549.35854458
   6.70000000 -549.35853018
   6.80000000 -549.35851650
   6.90000000 -549.35850349
   7.00000000 -549.35849111
   7.10000000 -549.35847932
   7.20000000 -549.35846809
   7.30000000 -549.35845738
   7.40000000 -549.35844717
   7.50000000 -549.35843742
   7.60000000 -549.35842811
   7.70000000 -549.35841921
   7.80000000 -549.35841070
   7.90000000 -549.35840257
   8.00000000 -549.35839478
   8.10000000 -549.35838733
   8.20000000 -549.35838019
   8.30000000 -549.35837335
   8.40000000 -549.35836680
   8.50000000 -549.35836051
   8.60000000 -549.35835447
   8.70000000 -549.35834868
   8.80000000 -549.35834312
   8.90000000 -549.35833778
   9.00000000 -549.35833265
   9.10000000 -549.35832772
   9.20000000 -549.35832298
   9.30000000 -549.35831842
   9.40000000 -549.35831403
   9.50000000 -549.35830980
   9.60000000 -549.35830574
   9.70000000 -549.35830182
   9.80000000 -549.35829805
   9.90000000 -549.35829441
  10.00000000 -549.35829090

The Calculated Surface using the SCF energy
   2.00000000 -549.36211988
   2.10000000 -549.36296826
   2.20000000 -549.36334856
   2.30000000 -549.36342902
   2.40000000 -549.36332590
   2.50000000 -549.36311713
   2.60000000 -549.36285291
   2.70000000 -549.36256409
   2.80000000 -549.36226851
   2.90000000 -549.36197585
   3.00000000 -549.36169106
   3.10000000 -549.36141673
   3.20000000 -549.36115443
   3.30000000 -549.36090585
   3.40000000 -549.36067235
   3.50000000 -549.36045531
   3.60000000 -549.36025582
   3.70000000 -549.36007449
   3.80000000 -549.35991136
   3.90000000 -549.35976589
   4.00000000 -549.35963705
   4.10000000 -549.35952342
   4.20000000 -549.35942341
   4.30000000 -549.35933535
   4.40000000 -549.35925759
   4.50000000 -549.35918848
   4.60000000 -549.35912695
   4.70000000 -549.35907172
   4.80000000 -549.35902177
   4.90000000 -549.35897630
   5.00000000 -549.35893466
   5.10000000 -549.35889632
   5.20000000 -549.35886084
   5.30000000 -549.35882788
   5.40000000 -549.35879717
   5.50000000 -549.35876846
   5.60000000 -549.35874156
   5.70000000 -549.35871631
   5.80000000 -549.35869257
   5.90000000 -549.35867021
   6.00000000 -549.35864912
   6.10000000 -549.35862921
   6.20000000 -549.35861040
   6.30000000 -549.35859259
   6.40000000 -549.35857573
   6.50000000 -549.35855974
   6.60000000 -549.35854458
   6.70000000 -549.35853018
   6.80000000 -549.35851650
   6.90000000 -549.35850349
   7.00000000 -549.35849111
   7.10000000 -549.35847932
   7.20000000 -549.35846809
   7.30000000 -549.35845738
   7.40000000 -549.35844717
   7.50000000 -549.35843742
   7.60000000 -549.35842811
   7.70000000 -549.35841921
   7.80000000 -549.35841070
   7.90000000 -549.35840257
   8.00000000 -549.35839478
   8.10000000 -549.35838733
   8.20000000 -549.35838019
   8.30000000 -549.35837335
   8.40000000 -549.35836680
   8.50000000 -549.35836051
   8.60000000 -549.35835447
   8.70000000 -549.35834868
   8.80000000 -549.35834312
   8.90000000 -549.35833778
   9.00000000 -549.35833265
   9.10000000 -549.35832772
   9.20000000 -549.35832298
   9.30000000 -549.35831842
   9.40000000 -549.35831403
   9.50000000 -549.35830980
   9.60000000 -549.35830574
   9.70000000 -549.35830182
   9.80000000 -549.35829805
   9.90000000 -549.35829441
  10.00000000 -549.35829090


Timings for individual modules:

Sum of individual times         ...      283.783 sec (=   4.730 min)
GTO integral calculation        ...       35.568 sec (=   0.593 min)  12.5 %
SCF iterations                  ...      248.215 sec (=   4.137 min)  87.5 %
                             ****ORCA TERMINATED NORMALLY****
TOTAL RUN TIME: 0 days 0 hours 5 minutes 15 seconds 860 msec
