Title

17 atoms
17 bonds
25 angles
35 dihedrals
24 impropers

7 atom types
8 bond types
5 angle types
6 dihedral types
3 improper types
-3.373137713 16.62686229 xlo xhi
-2.448665308 17.55133469 ylo yhi
-0.2262203081 19.77377969 zlo zhi
0.0 0.0 0.0 xy xz yz

Masses

1	14.00672 # N
2	12.01078 # C
3	15.99943 # O
4	15.99943 # O
5	1.007947 # H
6	1.007947 # H
7	1.007947 # H


Pair Coeffs

1	0.16769152	3.206876
2	0.086879315	3.4806469
3	0.2102061	3.0398122
4	0.20947353	2.99716
5	0.014090815	1.1034277
6	0.015611343	2.5725815
7	1.2326e-05	0.53453923

Bond Coeffs

1 harmonic	390.03554688505	1.390160554689
2 harmonic	505.144496193	1.019481865027
3 harmonic	360.7852444772	1.387193227181
4 harmonic	397.2545789619	1.085358495916
5 harmonic	279.1350963404	1.454628925034
6 harmonic	582.698766451	1.225198386222
7 harmonic	385.7604595587	1.369745182308
8 harmonic	543.5267831885	0.9716763312559


Angle Coeffs

1 harmonic	57.8982893754	126.8062420451
2 harmonic	63.44422595415	115.5071327674
3 harmonic	34.066775159195	129.1835929926
4 harmonic	65.09061609600001	110.3538806181
5 harmonic	201.41175231035	127.4691416191


Dihedral Coeffs

1 fourier 1	3.661930099076	2	180
2 fourier 1	0.9974165607242	2	180
3 fourier 1	1.193093382682	2	180
4 fourier 1	2.687457892086	2	180
5 fourier 1	2.772607909663	2	180
6 fourier 1	0.09692684957115	1	0


Improper Coeffs

1 0.3666666666666667	-1	2
2 0.3333333333333333	-1	2
3 3.5	-1	2


Atoms

1	1	1	-0.86325882	0.38106649	2.1738778	-0.22622031
2	1	2	0.26154118	-0.21257291	0.93516743	-0.11300948
3	1	2	-0.23705882	-1.6060162	0.89946102	-0.12288113
4	1	2	-0.042058824	-2.2880572	-0.31385613	-0.026404764
5	1	2	-0.21305882	-1.5633555	-1.4995536	0.080734652
6	1	2	-0.020058824	-0.16568033	-1.4692181	0.094258013
7	1	2	-0.23865882	0.54162219	-0.25158922	0.0043132933
8	1	2	0.66864118	2.0223717	-0.2784845	0.045310778
9	1	3	-0.59505882	2.6574406	0.75778553	0.18154845
10	1	4	-0.60815882	2.6315943	-1.4810175	-0.048547511
11	1	5	0.44124118	-0.14824474	2.9780004	0.10921028
12	1	5	0.44124118	1.3867214	2.1643387	-0.058952936
13	1	6	0.13494118	-2.1705775	1.8214007	-0.21928035
14	1	6	0.13294118	-3.3731377	-0.33480069	-0.039591933
15	1	6	0.13894118	-2.0847299	-2.4486653	0.15396519
16	1	6	0.15294118	0.3680958	-2.4101862	0.18188721
17	1	7	0.44494118	3.5788433	-1.2703865	0.0012383826

Bonds

1	1	1	2
2	2	1	11
3	2	1	12
4	3	2	3
5	3	2	7
6	3	3	4
7	4	3	13
8	3	4	5
9	4	4	14
10	3	5	6
11	4	5	15
12	3	6	7
13	4	6	16
14	5	7	8
15	6	8	9
16	7	8	10
17	8	10	17

Angles

1	1	1	2	3
2	1	1	2	7
3	2	2	1	11
4	2	2	1	12
5	1	2	3	4
6	3	2	3	13
7	1	2	7	6
8	1	2	7	8
9	1	3	2	7
10	1	3	4	5
11	3	3	4	14
12	3	4	3	13
13	1	4	5	6
14	3	4	5	15
15	3	5	4	14
16	1	5	6	7
17	3	5	6	16
18	3	6	5	15
19	1	6	7	8
20	3	7	6	16
21	1	7	8	9
22	1	7	8	10
23	4	8	10	17
24	5	9	8	10
25	2	11	1	12

Dihedrals

1	1	1	2	3	4
2	1	1	2	3	13
3	1	1	2	7	6
4	1	1	2	7	8
5	1	2	3	4	5
6	1	2	3	4	14
7	1	2	7	6	5
8	1	2	7	6	16
9	2	2	7	8	9
10	2	2	7	8	10
11	3	3	2	1	11
12	3	3	2	1	12
13	1	3	2	7	6
14	1	3	2	7	8
15	1	3	4	5	6
16	1	3	4	5	15
17	1	4	3	2	7
18	1	4	5	6	7
19	1	4	5	6	16
20	1	5	4	3	13
21	1	5	6	7	8
22	1	6	5	4	14
23	2	6	7	8	9
24	2	6	7	8	10
25	3	7	2	1	11
26	3	7	2	1	12
27	1	7	2	3	13
28	1	7	6	5	15
29	4	7	8	10	17
30	1	8	7	6	16
31	5	9	8	10	17
32	6	9	8	10	17
33	1	13	3	4	14
34	1	14	4	5	15
35	1	15	5	6	16

Impropers

1	1	1	2	3	7
2	1	3	2	7	1
3	1	7	2	1	3
4	2	2	1	11	12
5	2	11	1	12	2
6	2	12	1	2	11
7	1	2	3	4	13
8	1	4	3	13	2
9	1	13	3	2	4
10	1	2	7	6	8
11	1	6	7	8	2
12	1	8	7	2	6
13	1	3	4	5	14
14	1	5	4	14	3
15	1	14	4	3	5
16	1	4	5	6	15
17	1	6	5	15	4
18	1	15	5	4	6
19	1	5	6	7	16
20	1	7	6	16	5
21	1	16	6	5	7
22	3	7	8	9	10
23	3	9	8	10	7
24	3	10	8	7	9
