1.0 839.028
1.1 310.565451
1.2 126.320437
1.3 53.559043
1.4 22.0586265
1.5 7.57946681
1.6 0.734289601
1.7 -2.47412424
1.8 -3.88067694
1.9 -4.37715241
2 -4.41520394
2.1 -4.2298808
2.2 -3.94522602
2.3 -3.62668025
2.4 -3.3081199
2.5 -3.00623435
2.6 -2.72834512
2.7 -2.47672568
2.8 -2.25100969
2.9 -2.04953612
3 -1.87009537
3.1 -1.71033532
3.2 -1.56797371
3.3 -1.44090066
3.4 -1.3272198
3.5 -1.22525572
3.6 -1.13354411
3.7 -1.05081355
3.8 -0.975964413
3.9 -0.908047458
4 -0.846243748
4.1 -0.789846454
4.2 -0.73824479
4.3 -0.690910047
4.4 -0.647383586
4.5 -0.60726657
4.6 -0.570211239
4.7 -0.535913506
4.8 -0.504106686
4.9 -0.474556192
5 -0.447055041
5.1 -0.42142005
5.2 -0.397488605
5.3 -0.375115925
5.4 -0.354172724
5.5 -0.334543224
5.6 -0.316123456
5.7 -0.298819802
5.8 -0.282547745
5.9 -0.267230796
6 -0.252799561
6.1 -0.23919094
6.2 -0.226347428
6.3 -0.21421651
6.4 -0.202750132
6.5 -0.191904233
6.6 -0.181638346
6.7 -0.171915238
6.8 -0.162700591
6.9 -0.153962729
7 -0.145672369
7.1 -0.137802418
7.2 -0.13032775
7.3 -0.123225038
7.4 -0.116472636
7.5 -0.110050689
7.6 -0.103941412
7.7 -9.812735379E-02
7.8 -9.259207274E-02
7.9 -8.732033302E-02
8 -8.229786743E-02
8.1 -7.751183272E-02
8.2 -7.295005489E-02
8.3 -6.860119912E-02
8.4 -6.445532504E-02
8.5 -6.050211994E-02
8.6 -5.673147293E-02
8.7 -5.31341844E-02
8.8 -4.970295831E-02
8.9 -4.643077943E-02
9 -4.336697129E-02
9.1 -4.058101208E-02
9.2 -3.821206142E-02
9.3 -3.610311863E-02
9.4 -3.415814176E-02
9.5 -3.24729436E-02
9.6 -3.065017811E-02
9.7 -2.860664808E-02
9.8 -2.682319128E-02
9.9 -2.510429648E-02
10 -2.326183718E-02
