1.0 444238.728
1.1 167300.506
1.2 72659.3441
1.3 34766.9523
1.4 17656.7306
1.5 9294.18919
1.6 5006.10171
1.7 2742.13745
1.8 1523.3502
1.9 857.32124
2 488.537824
2.1 281.772595
2.2 164.417567
2.3 97.0039224
2.4 57.8243115
2.5 34.7996276
2.6 21.1284957
2.7 12.9354129
2.8 7.98575426
2.9 4.97596285
3 3.13702391
3.1 2.01039698
3.2 1.31992956
3.3 0.897791865
3.4 0.641162175
3.5 0.486615406
3.6 0.394818067
3.7 0.34128924
3.8 0.310770002
3.9 0.293761407
4 0.284378504
4.1 0.279010421
4.2 0.275478462
4.3 0.272504353
4.4 0.269373072
4.5 0.265718539
4.6 0.261387324
4.7 0.25635213
4.8 0.250657126
4.9 0.244383726
5 0.237629472
5.1 0.230495326
5.2 0.223078312
5.3 0.215467556
5.4 0.207742442
5.5 0.199972055
5.6 0.192215402
5.7 0.184522048
5.8 0.176932976
5.9 0.169481522
6 0.162194309
6.1 0.155092147
6.2 0.148190846
6.3 0.141501968
6.4 0.135033478
6.5 0.128790332
6.6 0.122774973
6.7 0.116987776
6.8 0.111427414
6.9 0.106091185
7 0.100975284
7.1 9.607502954E-02
7.2 9.138506651E-02
7.3 8.689952563E-02
7.4 8.261216332E-02
7.5 7.851647645E-02
7.6 7.460579705E-02
7.7 7.08733737E-02
7.8 6.731243573E-02
7.9 6.391624591E-02
8 6.067814297E-02
8.1 5.759157415E-02
8.2 5.46501237E-02
8.3 5.18475209E-02
8.4 4.917768593E-02
8.5 4.663471002E-02
8.6 4.421285893E-02
8.7 4.190647371E-02
8.8 3.971018807E-02
8.9 3.761890776E-02
9 3.562761807E-02
9.1 3.373129028E-02
9.2 3.192517865E-02
9.3 3.020384039E-02
9.4 2.856159096E-02
9.5 2.699314066E-02
9.6 2.549400854E-02
9.7 2.406065117E-02
9.8 2.268894504E-02
9.9 2.136981397E-02
10 2.000550518E-02
