1.0 1128.95685
1.1 444.059049
1.2 200.947555
1.3 100.807785
1.4 54.2013288
1.5 30.3503701
1.6 17.2505531
1.7 9.6784129
1.8 5.14139571
1.9 2.35704539
2 0.624578164
2.1 -0.45764963
2.2 -1.12872029
2.3 -1.53533503
2.4 -1.76975126
2.5 -1.89116769
2.6 -1.93820475
2.7 -1.93640266
2.8 -1.90283776
2.9 -1.84902501
3 -1.78277633
3.1 -1.70940953
3.2 -1.63254595
3.3 -1.55464329
3.4 -1.47735565
3.5 -1.40177909
3.6 -1.32862085
3.7 -1.25831662
3.8 -1.19111261
3.9 -1.12712313
4 -1.06637133
4.1 -1.00881809
4.2 -0.954382484
4.3 -0.902956445
4.4 -0.854415127
4.5 -0.8086243
4.6 -0.76544556
4.7 -0.724739976
4.8 -0.686370624
4.9 -0.650204286
5 -0.616112577
5.1 -0.583972635
5.2 -0.553667514
5.3 -0.525086348
5.4 -0.498124374
5.5 -0.472682833
5.6 -0.448668807
5.7 -0.425995001
5.8 -0.404579498
5.9 -0.384345498
6 -0.36522104
6.1 -0.347138737
6.2 -0.330035506
6.3 -0.313852306
6.4 -0.298533886
6.5 -0.284028548
6.6 -0.270287916
6.7 -0.25726672
6.8 -0.244922596
6.9 -0.233215886
7 -0.222109468
7.1 -0.211568578
7.2 -0.201560661
7.3 -0.192055214
7.4 -0.183023657
7.5 -0.174439201
7.6 -0.166276728
7.7 -0.158512678
7.8 -0.15112495
7.9 -0.144092804
8 -0.137396862
8.1 -0.131019589
8.2 -0.124943882
8.3 -0.119153513
8.4 -0.113633429
8.5 -0.108369383
8.6 -0.10334826
8.7 -9.855755713E-02
8.8 -9.398706505E-02
8.9 -8.962784642E-02
9 -8.546965495E-02
9.1 -8.150513E-02
9.2 -7.772726257E-02
9.3 -7.412627474E-02
9.4 -7.069268313E-02
9.5 -6.741758351E-02
9.6 -6.429261144E-02
9.7 -6.130991603E-02
9.8 -5.846215379E-02
9.9 -5.574239622E-02
10 -5.31316551E-02
