1.0 1078.63951
1.1 409.728715
1.2 177.452913
1.3 84.7208881
1.4 43.2207839
1.5 22.9170484
1.6 12.2984533
1.7 6.47200646
1.8 3.16863461
1.9 1.25841327
2 0.14563761
2.1 -0.498280623
2.2 -0.861178965
2.3 -1.05350656
2.4 -1.14166935
2.5 -1.16629409
2.6 -1.15256807
2.7 -1.11625549
2.8 -1.06727927
2.9 -1.01189509
3 -0.954032624
3.1 -0.896134603
3.2 -0.839687964
3.3 -0.785563504
3.4 -0.73423489
3.5 -0.685920855
3.6 -0.640678003
3.7 -0.598461609
3.8 -0.559165493
3.9 -0.522648179
4 -0.488749964
4.1 -0.457303988
4.2 -0.428143304
4.3 -0.401105286
4.4 -0.376034275
4.5 -0.352783054
4.6 -0.331213547
4.7 -0.311197022
4.8 -0.29261397
4.9 -0.27535379
5 -0.259314348
5.1 -0.244401481
5.2 -0.230528475
5.3 -0.217615532
5.4 -0.205589262
5.5 -0.194382178
5.6 -0.183932238
5.7 -0.1741824
5.8 -0.165080218
5.9 -0.156577458
6 -0.148629754
6.1 -0.141196284
6.2 -0.134239474
6.3 -0.127724726
6.4 -0.121620172
6.5 -0.115896447
6.6 -0.110526477
6.7 -0.105485293
6.8 -0.100749854
6.9 -9.62988907E-02
7 -9.211275643E-02
7.1 -8.817329799E-02
7.2 -8.446373205E-02
7.3 -8.096853442E-02
7.4 -7.767333844E-02
7.5 -7.456484197E-02
7.6 -7.16307223E-02
7.7 -6.885955821E-02
7.8 -6.624075886E-02
7.9 -6.376450208E-02
8 -6.142168069E-02
8.1 -5.920382394E-02
8.2 -5.710356163E-02
8.3 -5.511412308E-02
8.4 -5.32288264E-02
8.5 -5.144133298E-02
8.6 -4.974603106E-02
8.7 -4.813768963E-02
8.8 -4.66123739E-02
8.9 -4.516781012E-02
9 -4.380137678E-02
9.1 -4.251064249E-02
9.2 -4.129197763E-02
9.3 -4.014080793E-02
9.4 -3.905276901E-02
9.5 -3.802439791E-02
9.6 -3.705273234E-02
9.7 -3.613413949E-02
9.8 -3.532680085E-02
9.9 -3.499743831E-02
10 -3.487156475E-02
