
                                 *****************
                                 * O   R   C   A *
                                 *****************

                                            #,                                       
                                            ###                                      
                                            ####                                     
                                            #####                                    
                                            ######                                   
                                           ########,                                 
                                     ,,################,,,,,                         
                               ,,#################################,,                 
                          ,,##########################################,,             
                       ,#########################################, ''#####,          
                    ,#############################################,,   '####,        
                  ,##################################################,,,,####,       
                ,###########''''           ''''###############################       
              ,#####''   ,,,,##########,,,,          '''####'''          '####       
            ,##' ,,,,###########################,,,                        '##       
           ' ,,###''''                  '''############,,,                           
         ,,##''                                '''############,,,,        ,,,,,,###''
      ,#''                                            '''#######################'''  
     '                                                          ''''####''''         
             ,#######,   #######,   ,#######,      ##                                
            ,#'     '#,  ##    ##  ,#'     '#,    #''#        ######   ,####,        
            ##       ##  ##   ,#'  ##            #'  '#       #        #'  '#        
            ##       ##  #######   ##           ,######,      #####,   #    #        
            '#,     ,#'  ##    ##  '#,     ,#' ,#      #,         ##   #,  ,#        
             '#######'   ##     ##  '#######'  #'      '#     #####' # '####'        



                  #######################################################
                  #                        -***-                        #
                  #          Department of theory and spectroscopy      #
                  #    Directorship and core code : Frank Neese         #
                  #        Max Planck Institute fuer Kohlenforschung    #
                  #                Kaiser Wilhelm Platz 1               #
                  #                 D-45470 Muelheim/Ruhr               #
                  #                      Germany                        #
                  #                                                     #
                  #                  All rights reserved                #
                  #                        -***-                        #
                  #######################################################


                         Program Version 5.0.4 -  RELEASE  -


 With contributions from (in alphabetic order):
   Daniel Aravena         : Magnetic Suceptibility
   Michael Atanasov       : Ab Initio Ligand Field Theory (pilot matlab implementation)
   Alexander A. Auer      : GIAO ZORA, VPT2 properties, NMR spectrum
   Ute Becker             : Parallelization
   Giovanni Bistoni       : ED, misc. LED, open-shell LED, HFLD
   Martin Brehm           : Molecular dynamics
   Dmytro Bykov           : SCF Hessian
   Vijay G. Chilkuri      : MRCI spin determinant printing, contributions to CSF-ICE
   Dipayan Datta          : RHF DLPNO-CCSD density
   Achintya Kumar Dutta   : EOM-CC, STEOM-CC
   Dmitry Ganyushin       : Spin-Orbit,Spin-Spin,Magnetic field MRCI
   Miquel Garcia          : C-PCM and meta-GGA Hessian, CC/C-PCM, Gaussian charge scheme
   Yang Guo               : DLPNO-NEVPT2, F12-NEVPT2, CIM, IAO-localization
   Andreas Hansen         : Spin unrestricted coupled pair/coupled cluster methods
   Benjamin Helmich-Paris : MC-RPA, TRAH-SCF, COSX integrals
   Lee Huntington         : MR-EOM, pCC
   Robert Izsak           : Overlap fitted RIJCOSX, COSX-SCS-MP3, EOM
   Marcus Kettner         : VPT2
   Christian Kollmar      : KDIIS, OOCD, Brueckner-CCSD(T), CCSD density, CASPT2, CASPT2-K
   Simone Kossmann        : Meta GGA functionals, TD-DFT gradient, OOMP2, MP2 Hessian
   Martin Krupicka        : Initial AUTO-CI
   Lucas Lang             : DCDCAS
   Marvin Lechner         : AUTO-CI (C++ implementation), FIC-MRCC
   Dagmar Lenk            : GEPOL surface, SMD
   Dimitrios Liakos       : Extrapolation schemes; Compound Job, initial MDCI parallelization
   Dimitrios Manganas     : Further ROCIS development; embedding schemes
   Dimitrios Pantazis     : SARC Basis sets
   Anastasios Papadopoulos: AUTO-CI, single reference methods and gradients
   Taras Petrenko         : DFT Hessian,TD-DFT gradient, ASA, ECA, R-Raman, ABS, FL, XAS/XES, NRVS
   Peter Pinski           : DLPNO-MP2, DLPNO-MP2 Gradient
   Christoph Reimann      : Effective Core Potentials
   Marius Retegan         : Local ZFS, SOC
   Christoph Riplinger    : Optimizer, TS searches, QM/MM, DLPNO-CCSD(T), (RO)-DLPNO pert. Triples
   Tobias Risthaus        : Range-separated hybrids, TD-DFT gradient, RPA, STAB
   Michael Roemelt        : Original ROCIS implementation
   Masaaki Saitow         : Open-shell DLPNO-CCSD energy and density
   Barbara Sandhoefer     : DKH picture change effects
   Avijit Sen             : IP-ROCIS
   Kantharuban Sivalingam : CASSCF convergence, NEVPT2, FIC-MRCI
   Bernardo de Souza      : ESD, SOC TD-DFT
   Georgi Stoychev        : AutoAux, RI-MP2 NMR, DLPNO-MP2 response
   Willem Van den Heuvel  : Paramagnetic NMR
   Boris Wezisla          : Elementary symmetry handling
   Frank Wennmohs         : Technical directorship


 We gratefully acknowledge several colleagues who have allowed us to
 interface, adapt or use parts of their codes:
   Stefan Grimme, W. Hujo, H. Kruse, P. Pracht,  : VdW corrections, initial TS optimization,
                  C. Bannwarth, S. Ehlert          DFT functionals, gCP, sTDA/sTD-DF
   Ed Valeev, F. Pavosevic, A. Kumar             : LibInt (2-el integral package), F12 methods
   Garnet Chan, S. Sharma, J. Yang, R. Olivares  : DMRG
   Ulf Ekstrom                                   : XCFun DFT Library
   Mihaly Kallay                                 : mrcc  (arbitrary order and MRCC methods)
   Jiri Pittner, Ondrej Demel                    : Mk-CCSD
   Frank Weinhold                                : gennbo (NPA and NBO analysis)
   Christopher J. Cramer and Donald G. Truhlar   : smd solvation model
   Lars Goerigk                                  : TD-DFT with DH, B97 family of functionals
   V. Asgeirsson, H. Jonsson                     : NEB implementation
   FAccTs GmbH                                   : IRC, NEB, NEB-TS, DLPNO-Multilevel, CI-OPT
                                                   MM, QMMM, 2- and 3-layer-ONIOM, Crystal-QMMM,
                                                   LR-CPCM, SF, NACMEs, symmetry and pop. for TD-DFT,
                                                   nearIR, NL-DFT gradient (VV10), updates on ESD,
                                                   ML-optimized integration grids
   S Lehtola, MJT Oliveira, MAL Marques          : LibXC Library
   Liviu Ungur et al                             : ANISO software


 Your calculation uses the libint2 library for the computation of 2-el integrals
 For citations please refer to: http://libint.valeyev.net

 Your ORCA version has been built with support for libXC version: 5.1.0
 For citations please refer to: https://tddft.org/programs/libxc/

 This ORCA versions uses:
   CBLAS   interface :  Fast vector & matrix operations
   LAPACKE interface :  Fast linear algebra routines
   SCALAPACK package :  Parallel linear algebra routines
   Shared memory     :  Shared parallel matrices
   BLAS/LAPACK       :  OpenBLAS 0.3.15  USE64BITINT DYNAMIC_ARCH NO_AFFINITY SkylakeX SINGLE_THREADED
        Core in use  :  SkylakeX
   Copyright (c) 2011-2014, The OpenBLAS Project


================================================================================

----- Orbital basis set information -----
Your calculation utilizes the basis: 6-31G(d)
   H-He, Li-Ne : W. J. Hehre, R. Ditchfield and J.A. Pople, J. Chem. Phys. 56, 2257 (1972).
                 Note: He and Ne are unpublished basis sets taken from the Gaussian program.
                 Note: Li and B from J. D. Dill and J. A. Pople, J. Chem. Phys. 62, 2921 (1975).
   Na - Ar     : M. M. Francl, W. J. Pietro, W. J. Hehre, J. S. Binkley, M. S. Gordon, 
                 D. J. DeFrees and J. A. Pople, J. Chem. Phys. 77, 3654 (1982).
   K - Zn      : V. A. Rassolov, J. A. Pople, M. A. Ratner, and T. L. Windus, J. Chem. Phys. 109, 1223 (1998).

================================================================================
                                        WARNINGS
                       Please study these warnings very carefully!
================================================================================


INFO   : the flag for use of the SHARK integral package has been found!

================================================================================
                                       INPUT FILE
================================================================================
NAME = scan_c7_h.in
|  1> ! HF 6-31g(d) PAL4
|  2> 
|  3> %paras  
|  4> B=2,10,81
|  5> end 
|  6> 
|  7> *int 0 1
|  8>  C      0   0   0     0.000000000000     0.00000000     0.00000000
|  9>  C      1   0   0     1.410408792387     0.00000000     0.00000000
| 10>  C      1   2   0     1.387629674561   121.46540976     0.00000000
| 11>  C      2   1   3     1.418429715822   117.86149259   357.95682680
| 12>  C      3   1   2     1.401216550379   120.41314464     1.85928728
| 13>  C      5   3   1     1.387728922094   119.18088952   358.56672225
| 14>  H      5   3   1     1.086448109445   120.54301814   179.88964476
| 15>  H      6   5   3     1.085257810950   120.27815199   180.37435074
| 16>  C      4   2   1     1.474525319058   120.29082617   177.88235003
| 17>  H      1   2   3     1.088916721971   118.52499331   181.18172947
| 18>  N      2   1   3     1.382927159506   119.21307977   183.26061362
| 19>  O      9   4   2     1.231295327431   126.25299933   356.29999903
| 20>  O      9   4   2     1.361745810407   113.26023456   176.60892359
| 21>  H     13   9   4     0.980186199946   104.58659711   179.32147663
| 22>  H      3   1   2     1.088000665320   119.35735619   180.54826763
| 23>  H     11   2   1     1.014297666448   115.28426224   195.45494424
| 24>  H     11   2   1     1.012437828384   115.27373933   333.44819984
| 25>  H      9   4   2     {B}               90.00000000    90.00000000
| 26>  O     18   9   4     0.957200000000   180.00000000    90.00000000 
| 27>  H     19   9   4     0.957200000000   104.52000000   180.00000000  
| 28> *
| 29> 
| 30>                          ****END OF INPUT****
================================================================================

                       ******************************
                       * Parameter Scan Calculation *
                       ******************************

Trajectory settings:
    -> SCF surface will be mapped

There are 1 parameter(s) to be scanned
             B: range=   2.00000000 ..  10.00000000  steps=   81
There will be   81 energy evaluations


         *************************************************************
                                TRAJECTORY STEP   1
                  B  :   2.00000000
         *************************************************************
---------------------------------
CARTESIAN COORDINATES (ANGSTROEM)
---------------------------------
  C      0.000000    0.000000    0.000000
  C      1.410409    0.000000    0.000000
  C     -0.724320    1.183586    0.000000
  C      2.073292    1.253208   -0.044708
  C     -0.064411    2.419058   -0.039207
  C      1.323048    2.445080   -0.047743
  H     -0.629466    3.347001   -0.041088
  H      1.852429    3.392160   -0.071804
  C      3.545723    1.317753    0.000066
  H     -0.520004   -0.956528    0.019731
  N      2.085359   -1.205080   -0.068653
  O      4.312423    0.364488    0.139874
  O      4.032585    2.583306   -0.125203
  H      5.005653    2.480252   -0.067898
  H     -1.811547    1.143588    0.009074
  H      3.068328   -1.165755    0.178380
  H      1.581522   -2.004078    0.295737
  H      3.611059    1.211981   -1.996066
  O      3.642329    1.161358   -2.951415
  H      4.575480    1.189228   -3.162800

----------------------------
CARTESIAN COORDINATES (A.U.)
----------------------------
  NO LB      ZA    FRAG     MASS         X           Y           Z
   0 C     6.0000    0    12.011    0.000000    0.000000    0.000000
   1 C     6.0000    0    12.011    2.665286    0.000000    0.000000
   2 C     6.0000    0    12.011   -1.368767    2.236654    0.000000
   3 C     6.0000    0    12.011    3.917954    2.368220   -0.084487
   4 C     6.0000    0    12.011   -0.121718    4.571357   -0.074090
   5 C     6.0000    0    12.011    2.500199    4.620531   -0.090221
   6 H     1.0000    0     1.008   -1.189519    6.324915   -0.077645
   7 H     1.0000    0     1.008    3.500584    6.410253   -0.135689
   8 C     6.0000    0    12.011    6.700446    2.490192    0.000125
   9 H     1.0000    0     1.008   -0.982664   -1.807577    0.037287
  10 N     7.0000    0    14.007    3.940757   -2.277270   -0.129736
  11 O     8.0000    0    15.999    8.149298    0.688782    0.264323
  12 O     8.0000    0    15.999    7.620482    4.881740   -0.236599
  13 H     1.0000    0     1.008    9.459313    4.686996   -0.128308
  14 H     1.0000    0     1.008   -3.423328    2.161068    0.017147
  15 H     1.0000    0     1.008    5.798299   -2.202959    0.337089
  16 H     1.0000    0     1.008    2.988644   -3.787158    0.558863
  17 H     1.0000    0     1.008    6.823913    2.290312   -3.772018
  18 O     8.0000    0    15.999    6.883005    2.194649   -5.577366
  19 H     1.0000    0     1.008    8.646405    2.247315   -5.976827

--------------------------------
INTERNAL COORDINATES (ANGSTROEM)
--------------------------------
 C      0   0   0     0.000000000000     0.00000000     0.00000000
 C      1   0   0     1.410408792387     0.00000000     0.00000000
 C      1   2   0     1.387629674561   121.46540976     0.00000000
 C      2   1   3     1.418429715822   117.86149259   357.95682680
 C      3   1   2     1.401216550379   120.41314464     1.85928728
 C      5   3   1     1.387728922094   119.18088952   358.56672225
 H      5   3   1     1.086448109445   120.54301814   179.88964476
 H      6   5   3     1.085257810950   120.27815199   180.37435074
 C      4   2   1     1.474525319058   120.29082617   177.88235003
 H      1   2   3     1.088916721971   118.52499331   181.18172947
 N      2   1   3     1.382927159506   119.21307977   183.26061362
 O      9   4   2     1.231295327431   126.25299933   356.29999903
 O      9   4   2     1.361745810407   113.26023456   176.60892359
 H     13   9   4     0.980186199946   104.58659711   179.32147663
 H      3   1   2     1.088000665320   119.35735619   180.54826763
 H     11   2   1     1.014297666448   115.28426224   195.45494424
 H     11   2   1     1.012437828384   115.27373933   333.44819984
 H      9   4   2     2.000000000000    90.00000000    90.00000000
 O     18   9   4     0.957200000000   180.00000000    90.00000000
 H     19   9   4     0.957200000000   104.52000000   180.00000000

---------------------------
INTERNAL COORDINATES (A.U.)
---------------------------
 C      0   0   0     0.000000000000     0.00000000     0.00000000
 C      1   0   0     2.665286354486     0.00000000     0.00000000
 C      1   2   0     2.622240060223   121.46540976     0.00000000
 C      2   1   3     2.680443703119   117.86149259   357.95682680
 C      3   1   2     2.647915534534   120.41314464     1.85928728
 C      5   3   1     2.622427610879   119.18088952   358.56672225
 H      5   3   1     2.053089385568   120.54301814   179.88964476
 H      6   5   3     2.050840047394   120.27815199   180.37435074
 C      4   2   1     2.786449030552   120.29082617   177.88235003
 H      1   2   3     2.057754387172   118.52499331   181.18172947
 N      2   1   3     2.613353594628   119.21307977   183.26061362
 O      9   4   2     2.326810958821   126.25299933   356.29999903
 O      9   4   2     2.573326645684   113.26023456   176.60892359
 H     13   9   4     1.852283478147   104.58659711   179.32147663
 H      3   1   2     2.056023290979   119.35735619   180.54826763
 H     11   2   1     1.916744807862   115.28426224   195.45494424
 H     11   2   1     1.913230223268   115.27373933   333.44819984
 H      9   4   2     3.779452267843    90.00000000    90.00000000
 O     18   9   4     1.808845855389   180.00000000    90.00000000
 H     19   9   4     1.808845855389   104.52000000   180.00000000

---------------------
BASIS SET INFORMATION
---------------------
There are 4 groups of distinct atoms

 Group   1 Type C   : 10s4p1d contracted to 3s2p1d pattern {631/31/1}
 Group   2 Type H   : 4s contracted to 2s pattern {31}
 Group   3 Type N   : 10s4p1d contracted to 3s2p1d pattern {631/31/1}
 Group   4 Type O   : 10s4p1d contracted to 3s2p1d pattern {631/31/1}

Atom   0C    basis set group =>   1
Atom   1C    basis set group =>   1
Atom   2C    basis set group =>   1
Atom   3C    basis set group =>   1
Atom   4C    basis set group =>   1
Atom   5C    basis set group =>   1
Atom   6H    basis set group =>   2
Atom   7H    basis set group =>   2
Atom   8C    basis set group =>   1
Atom   9H    basis set group =>   2
Atom  10N    basis set group =>   3
Atom  11O    basis set group =>   4
Atom  12O    basis set group =>   4
Atom  13H    basis set group =>   2
Atom  14H    basis set group =>   2
Atom  15H    basis set group =>   2
Atom  16H    basis set group =>   2
Atom  17H    basis set group =>   2
Atom  18O    basis set group =>   4
Atom  19H    basis set group =>   2


           ************************************************************
           *        Program running with 4 parallel MPI-processes     *
           *              working on a common directory               *
           ************************************************************
------------------------------------------------------------------------------
                           ORCA GTO INTEGRAL CALCULATION
------------------------------------------------------------------------------
------------------------------------------------------------------------------
                   ___                                                        
                  /   \      - P O W E R E D   B Y -                         
                 /     \                                                     
                 |  |  |   _    _      __       _____    __    __             
                 |  |  |  | |  | |    /  \     |  _  \  |  |  /  |          
                  \  \/   | |  | |   /    \    | | | |  |  | /  /          
                 / \  \   | |__| |  /  /\  \   | |_| |  |  |/  /          
                |  |  |   |  __  | /  /__\  \  |    /   |      \           
                |  |  |   | |  | | |   __   |  |    \   |  |\   \          
                \     /   | |  | | |  |  |  |  | |\  \  |  | \   \       
                 \___/    |_|  |_| |__|  |__|  |_| \__\ |__|  \__/        
                                                                              
                      - O R C A' S   B I G   F R I E N D -                    
                                      &                                       
                       - I N T E G R A L  F E E D E R -                       
                                                                              
 v1 FN, 2020, v2 2021                                                         
------------------------------------------------------------------------------


Reading SHARK input file scan_c7_h.SHARKINP.tmp ... ok
----------------------
SHARK INTEGRAL PACKAGE
----------------------

Number of atoms                             ...     20
Number of basis functions                   ...    172
Number of shells                            ...     84
Maximum angular momentum                    ...      2
Integral batch strategy                     ... SHARK/LIBINT Hybrid
RI-J (if used) integral strategy            ... SPLIT-RIJ (Revised 2003 algorithm where possible)
Printlevel                                  ...      1
Contraction scheme used                     ... SEGMENTED contraction
Coulomb Range Separation                    ... NOT USED
Exchange Range Separation                   ... NOT USED
Finite Nucleus Model                        ... NOT USED
Auxiliary Coulomb fitting basis             ... NOT available
Auxiliary J/K fitting basis                 ... NOT available
Auxiliary Correlation fitting basis         ... NOT available
Auxiliary 'external' fitting basis          ... NOT available
Integral threshold                          ...     1.000000e-10
Primitive cut-off                           ...     1.000000e-11
Primitive pair pre-selection threshold      ...     1.000000e-11

Calculating pre-screening integrals         ... done (  0.0 sec) Dimension = 84
Organizing shell pair data                  ... done (  0.0 sec)
Shell pair information
Total number of shell pairs                 ...      3570
Shell pairs after pre-screening             ...      3208
Total number of primitive shell pairs       ...     20559
Primitive shell pairs kept                  ...     11347
          la=0 lb=0:   1138 shell pairs
          la=1 lb=0:   1046 shell pairs
          la=1 lb=1:    246 shell pairs
          la=2 lb=0:    485 shell pairs
          la=2 lb=1:    234 shell pairs
          la=2 lb=2:     59 shell pairs

Calculating one electron integrals          ... done (  0.0 sec)
Calculating Nuclear repulsion               ... done (  0.0 sec) ENN=    609.575964392084 Eh

SHARK setup successfully completed in   0.1 seconds

Maximum memory used throughout the entire GTOINT-calculation: 11.0 MB


           ************************************************************
           *        Program running with 4 parallel MPI-processes     *
           *              working on a common directory               *
           ************************************************************
-------------------------------------------------------------------------------
                                 ORCA SCF
-------------------------------------------------------------------------------

------------
SCF SETTINGS
------------
Hamiltonian:
 Ab initio Hamiltonian  Method          .... Hartree-Fock(GTOs)


General Settings:
 Integral files         IntName         .... scan_c7_h
 Hartree-Fock type      HFTyp           .... RHF
 Total Charge           Charge          ....    0
 Multiplicity           Mult            ....    1
 Number of Electrons    NEL             ....   82
 Basis Dimension        Dim             ....  172
 Nuclear Repulsion      ENuc            ....    609.5759643921 Eh

Convergence Acceleration:
 DIIS                   CNVDIIS         .... on
   Start iteration      DIISMaxIt       ....    12
   Startup error        DIISStart       ....  0.200000
   # of expansion vecs  DIISMaxEq       ....     5
   Bias factor          DIISBfac        ....   1.050
   Max. coefficient     DIISMaxC        ....  10.000
 Trust-Rad. Augm. Hess. CNVTRAH         .... auto
   Auto Start mean grad. ratio tolernc. ....  1.125000
   Auto Start start iteration           ....    20
   Auto Start num. interpolation iter.  ....    10
   Max. Number of Micro iterations      ....    16
   Max. Number of Macro iterations      .... Maxiter - #DIIS iter
   Number of Davidson start vectors     ....     2
   Converg. threshold I  (grad. norm)   ....   5.000e-05
   Converg. threshold II (energy diff.) ....   1.000e-06
   Grad. Scal. Fac. for Micro threshold ....   0.100
   Minimum threshold for Micro iter.    ....   0.010
   NR start threshold (gradient norm)   ....   0.001
   Initial trust radius                 ....   0.400
   Minimum AH scaling param. (alpha)    ....   1.000
   Maximum AH scaling param. (alpha)    .... 1000.000
   Orbital update algorithm             .... Taylor
   White noise on init. David. guess    .... on
   Maximum white noise                  ....   0.010
   Quad. conv. algorithm                .... NR
 SOSCF                  CNVSOSCF        .... on
   Start iteration      SOSCFMaxIt      ....   150
   Startup grad/error   SOSCFStart      ....  0.003300
 Level Shifting         CNVShift        .... on
   Level shift para.    LevelShift      ....    0.2500
   Turn off err/grad.   ShiftErr        ....    0.0010
 Zerner damping         CNVZerner       .... off
 Static damping         CNVDamp         .... on
   Fraction old density DampFac         ....    0.7000
   Max. Damping (<1)    DampMax         ....    0.9800
   Min. Damping (>=0)   DampMin         ....    0.0000
   Turn off err/grad.   DampErr         ....    0.1000
 Fernandez-Rico         CNVRico         .... off

SCF Procedure:
 Maximum # iterations   MaxIter         ....   125
 SCF integral mode      SCFMode         .... Direct
   Integral package                     .... SHARK and LIBINT hybrid scheme
 Reset frequency        DirectResetFreq ....    20
 Integral Threshold     Thresh          ....  1.000e-10 Eh
 Primitive CutOff       TCut            ....  1.000e-11 Eh

Convergence Tolerance:
 Convergence Check Mode ConvCheckMode   .... Total+1el-Energy
 Convergence forced     ConvForced      .... 0
 Energy Change          TolE            ....  1.000e-06 Eh
 1-El. energy change                    ....  1.000e-03 Eh
 Orbital Gradient       TolG            ....  5.000e-05
 Orbital Rotation angle TolX            ....  5.000e-05
 DIIS Error             TolErr          ....  1.000e-06


Diagonalization of the overlap matrix:
Smallest eigenvalue                        ... 4.214e-04
Time for diagonalization                   ...    0.006 sec
Threshold for overlap eigenvalues          ... 1.000e-08
Number of eigenvalues below threshold      ... 0
Time for construction of square roots      ...    0.003 sec
Total time needed                          ...    0.010 sec

Time for model grid setup =    0.111 sec

------------------------------
INITIAL GUESS: MODEL POTENTIAL
------------------------------
Loading Hartree-Fock densities                     ... done
Calculating cut-offs                               ... done
Initializing the effective Hamiltonian             ... done
Setting up the integral package (SHARK)            ... done
Starting the Coulomb interaction                   ... done (   0.1 sec)
Reading the grid                                   ... done
Mapping shells                                     ... done
Starting the XC term evaluation                    ... done (   0.0 sec)
Transforming the Hamiltonian                       ... done (   0.0 sec)
Diagonalizing the Hamiltonian                      ... done (   0.0 sec)
Back transforming the eigenvectors                 ... done (   0.0 sec)
Now organizing SCF variables                       ... done
                      ------------------
                      INITIAL GUESS DONE (   0.2 sec)
                      ------------------
--------------
SCF ITERATIONS
--------------
ITER       Energy         Delta-E        Max-DP      RMS-DP      [F,P]     Damp
               ***  Starting incremental Fock matrix formation  ***
  0   -548.8883826588   0.000000000000 0.06716300  0.00235185  0.3136980 0.7000
  1   -549.0530705105  -0.164687851728 0.04695900  0.00178106  0.1883648 0.7000
                               ***Turning on DIIS***
  2   -549.1496365714  -0.096566060889 0.02722634  0.00117855  0.1029434 0.7000
  3   -550.2434549104  -1.093818338992 0.04771882  0.00259800  0.0575119 0.0000
  4   -549.3067652155   0.936689694887 0.00748429  0.00038513  0.0102961 0.0000
  5   -549.3675748620  -0.060809646555 0.00428876  0.00017878  0.0049000 0.0000
                      *** Initiating the SOSCF procedure ***
                           *** Shutting down DIIS ***
                      *** Re-Reading the Fockian *** 
                      *** Removing any level shift *** 
ITER      Energy       Delta-E        Grad      Rot      Max-DP    RMS-DP
  6   -549.34688535   0.0206895093  0.001675  0.001675  0.002519  0.000088
               *** Restarting incremental Fock matrix formation ***
  7   -549.34812945  -0.0012440962  0.000700  0.001469  0.001437  0.000049
  8   -549.34815578  -0.0000263262  0.000412  0.002159  0.002226  0.000066
  9   -549.34816769  -0.0000119183  0.000218  0.000291  0.000440  0.000013
 10   -549.34816912  -0.0000014224  0.000066  0.000176  0.000148  0.000005
                 **** Energy Check signals convergence ****
              ***Rediagonalizing the Fockian in SOSCF/NRSCF***

               *****************************************************
               *                     SUCCESS                       *
               *           SCF CONVERGED AFTER  11 CYCLES          *
               *****************************************************


----------------
TOTAL SCF ENERGY
----------------

Total Energy       :         -549.34816931 Eh          -14948.52366 eV

Components:
Nuclear Repulsion  :          609.57596439 Eh           16587.40528 eV
Electronic Energy  :        -1158.92413370 Eh          -31535.92893 eV
One Electron Energy:        -1960.56157950 Eh          -53349.59282 eV
Two Electron Energy:          801.63744580 Eh           21813.66389 eV

Virial components:
Potential Energy   :        -1098.01098682 Eh          -29878.39794 eV
Kinetic Energy     :          548.66281751 Eh           14929.87428 eV
Virial Ratio       :            2.00124913


---------------
SCF CONVERGENCE
---------------

  Last Energy change         ...   -1.9237e-07  Tolerance :   1.0000e-06
  Last MAX-Density change    ...    1.1005e-04  Tolerance :   1.0000e-05
  Last RMS-Density change    ...    4.0387e-06  Tolerance :   1.0000e-06
  Last Orbital Gradient      ...    3.3251e-05  Tolerance :   5.0000e-05
  Last Orbital Rotation      ...    1.9583e-04  Tolerance :   5.0000e-05

             **** THE GBW FILE WAS UPDATED (scan_c7_h.gbw) ****
             **** DENSITY scan_c7_h.scfp WAS UPDATED ****
             **** ENERGY FILE WAS UPDATED (scan_c7_h.en.tmp) ****
             **** THE GBW FILE WAS UPDATED (scan_c7_h.gbw) ****
             **** DENSITY scan_c7_h.scfp WAS UPDATED ****
----------------
ORBITAL ENERGIES
----------------

  NO   OCC          E(Eh)            E(eV) 
   0   2.0000     -20.627739      -561.3093 
   1   2.0000     -20.566754      -559.6498 
   2   2.0000     -20.538917      -558.8923 
   3   2.0000     -15.566531      -423.5869 
   4   2.0000     -11.407450      -310.4125 
   5   2.0000     -11.306733      -307.6719 
   6   2.0000     -11.257803      -306.3404 
   7   2.0000     -11.256569      -306.3068 
   8   2.0000     -11.247955      -306.0724 
   9   2.0000     -11.233985      -305.6923 
  10   2.0000     -11.229418      -305.5680 
  11   2.0000      -1.472111       -40.0582 
  12   2.0000      -1.363969       -37.1155 
  13   2.0000      -1.327060       -36.1111 
  14   2.0000      -1.233244       -33.5583 
  15   2.0000      -1.140277       -31.0285 
  16   2.0000      -1.047744       -28.5106 
  17   2.0000      -1.000540       -27.2261 
  18   2.0000      -0.897762       -24.4293 
  19   2.0000      -0.840977       -22.8842 
  20   2.0000      -0.803986       -21.8776 
  21   2.0000      -0.724648       -19.7187 
  22   2.0000      -0.713212       -19.4075 
  23   2.0000      -0.704116       -19.1600 
  24   2.0000      -0.693623       -18.8744 
  25   2.0000      -0.689722       -18.7683 
  26   2.0000      -0.638857       -17.3842 
  27   2.0000      -0.636449       -17.3186 
  28   2.0000      -0.613501       -16.6942 
  29   2.0000      -0.598856       -16.2957 
  30   2.0000      -0.582946       -15.8628 
  31   2.0000      -0.553057       -15.0494 
  32   2.0000      -0.543664       -14.7938 
  33   2.0000      -0.532853       -14.4997 
  34   2.0000      -0.510783       -13.8991 
  35   2.0000      -0.495020       -13.4702 
  36   2.0000      -0.478668       -13.0252 
  37   2.0000      -0.458752       -12.4833 
  38   2.0000      -0.451023       -12.2730 
  39   2.0000      -0.354841        -9.6557 
  40   2.0000      -0.301171        -8.1953 
  41   0.0000       0.084085         2.2881 
  42   0.0000       0.150273         4.0891 
  43   0.0000       0.207135         5.6364 
  44   0.0000       0.220294         5.9945 
  45   0.0000       0.236344         6.4312 
  46   0.0000       0.246297         6.7021 
  47   0.0000       0.260291         7.0829 
  48   0.0000       0.292466         7.9584 
  49   0.0000       0.319244         8.6871 
  50   0.0000       0.329414         8.9638 
  51   0.0000       0.343056         9.3350 
  52   0.0000       0.365781         9.9534 
  53   0.0000       0.379280        10.3207 
  54   0.0000       0.432208        11.7610 
  55   0.0000       0.444480        12.0949 
  56   0.0000       0.446292        12.1442 
  57   0.0000       0.505053        13.7432 
  58   0.0000       0.521603        14.1935 
  59   0.0000       0.554335        15.0842 
  60   0.0000       0.567912        15.4537 
  61   0.0000       0.593440        16.1483 
  62   0.0000       0.699609        19.0373 
  63   0.0000       0.712354        19.3841 
  64   0.0000       0.744738        20.2653 
  65   0.0000       0.753746        20.5105 
  66   0.0000       0.766910        20.8687 
  67   0.0000       0.786711        21.4075 
  68   0.0000       0.807927        21.9848 
  69   0.0000       0.818896        22.2833 
  70   0.0000       0.822694        22.3867 
  71   0.0000       0.833714        22.6865 
  72   0.0000       0.844611        22.9830 
  73   0.0000       0.851826        23.1794 
  74   0.0000       0.898022        24.4364 
  75   0.0000       0.910353        24.7720 
  76   0.0000       0.919282        25.0149 
  77   0.0000       0.939452        25.5638 
  78   0.0000       0.954966        25.9859 
  79   0.0000       1.002387        27.2763 
  80   0.0000       1.019213        27.7342 
  81   0.0000       1.038444        28.2575 
  82   0.0000       1.062482        28.9116 
  83   0.0000       1.073968        29.2242 
  84   0.0000       1.086139        29.5553 
  85   0.0000       1.101152        29.9639 
  86   0.0000       1.108714        30.1696 
  87   0.0000       1.136423        30.9236 
  88   0.0000       1.147997        31.2386 
  89   0.0000       1.165019        31.7018 
  90   0.0000       1.167160        31.7600 
  91   0.0000       1.187178        32.3048 
  92   0.0000       1.196826        32.5673 
  93   0.0000       1.213165        33.0119 
  94   0.0000       1.223713        33.2989 
  95   0.0000       1.248469        33.9726 
  96   0.0000       1.259142        34.2630 
  97   0.0000       1.289074        35.0775 
  98   0.0000       1.294222        35.2176 
  99   0.0000       1.310213        35.6527 
 100   0.0000       1.322097        35.9761 
 101   0.0000       1.349388        36.7187 
 102   0.0000       1.378389        37.5079 
 103   0.0000       1.388366        37.7794 
 104   0.0000       1.425456        38.7886 
 105   0.0000       1.444435        39.3051 
 106   0.0000       1.469883        39.9976 
 107   0.0000       1.498627        40.7797 
 108   0.0000       1.536565        41.8121 
 109   0.0000       1.573413        42.8147 
 110   0.0000       1.586705        43.1764 
 111   0.0000       1.593037        43.3487 
 112   0.0000       1.632582        44.4248 
 113   0.0000       1.653230        44.9867 
 114   0.0000       1.677903        45.6581 
 115   0.0000       1.709478        46.5173 
 116   0.0000       1.721340        46.8400 
 117   0.0000       1.759384        47.8753 
 118   0.0000       1.771199        48.1968 
 119   0.0000       1.850128        50.3446 
 120   0.0000       1.938935        52.7611 
 121   0.0000       1.958396        53.2907 
 122   0.0000       1.976875        53.7935 
 123   0.0000       2.006578        54.6018 
 124   0.0000       2.025524        55.1173 
 125   0.0000       2.050686        55.8020 
 126   0.0000       2.062887        56.1340 
 127   0.0000       2.068864        56.2966 
 128   0.0000       2.075882        56.4876 
 129   0.0000       2.079626        56.5895 
 130   0.0000       2.126307        57.8598 
 131   0.0000       2.136540        58.1382 
 132   0.0000       2.175812        59.2069 
 133   0.0000       2.185485        59.4701 
 134   0.0000       2.217718        60.3472 
 135   0.0000       2.231073        60.7106 
 136   0.0000       2.251608        61.2694 
 137   0.0000       2.287144        62.2363 
 138   0.0000       2.300772        62.6072 
 139   0.0000       2.338166        63.6247 
 140   0.0000       2.368509        64.4504 
 141   0.0000       2.415175        65.7202 
 142   0.0000       2.444985        66.5314 
 143   0.0000       2.452975        66.7488 
 144   0.0000       2.511455        68.3402 
 145   0.0000       2.518061        68.5199 
 146   0.0000       2.558395        69.6175 
 147   0.0000       2.583309        70.2954 
 148   0.0000       2.605230        70.8919 
 149   0.0000       2.634073        71.6768 
 150   0.0000       2.705072        73.6088 
 151   0.0000       2.715224        73.8850 
 152   0.0000       2.756589        75.0106 
 153   0.0000       2.781412        75.6861 
 154   0.0000       2.820354        76.7457 
 155   0.0000       2.850677        77.5709 
 156   0.0000       2.914546        79.3088 
 157   0.0000       2.939093        79.9768 
 158   0.0000       2.950616        80.2903 
 159   0.0000       2.982366        81.1543 
 160   0.0000       3.021973        82.2321 
 161   0.0000       3.033133        82.5357 
 162   0.0000       3.067282        83.4650 
 163   0.0000       3.093493        84.1782 
 164   0.0000       3.183129        86.6173 
 165   0.0000       3.196038        86.9686 
 166   0.0000       3.220945        87.6464 
 167   0.0000       3.290235        89.5319 
 168   0.0000       3.395215        92.3885 
 169   0.0000       3.442778        93.6827 
 170   0.0000       3.593748        97.7908 
 171   0.0000       3.803583       103.5007 

                    ********************************
                    * MULLIKEN POPULATION ANALYSIS *
                    ********************************

-----------------------
MULLIKEN ATOMIC CHARGES
-----------------------
   0 C :   -0.268751
   1 C :    0.394125
   2 C :   -0.151330
   3 C :   -0.214872
   4 C :   -0.253859
   5 C :   -0.135490
   6 H :    0.207970
   7 H :    0.254638
   8 C :    0.791884
   9 H :    0.204316
  10 N :   -0.956682
  11 O :   -0.639135
  12 O :   -0.761160
  13 H :    0.481753
  14 H :    0.218705
  15 H :    0.441633
  16 H :    0.372592
  17 H :    0.502587
  18 O :   -0.926621
  19 H :    0.437699
Sum of atomic charges:    0.0000000

--------------------------------
MULLIKEN REDUCED ORBITAL CHARGES
--------------------------------
  0 C s       :     3.149039  s :     3.149039
      pz      :     1.112655  p :     3.076816
      px      :     0.904261
      py      :     1.059900
      dz2     :     0.004555  d :     0.042897
      dxz     :     0.004179
      dyz     :     0.003721
      dx2y2   :     0.015788
      dxy     :     0.014655
  1 C s       :     3.046458  s :     3.046458
      pz      :     0.791080  p :     2.485811
      px      :     0.907293
      py      :     0.787438
      dz2     :     0.005513  d :     0.073606
      dxz     :     0.010319
      dyz     :     0.015773
      dx2y2   :     0.020503
      dxy     :     0.021498
  2 C s       :     3.182724  s :     3.182724
      pz      :     0.884212  p :     2.919694
      px      :     1.098772
      py      :     0.936710
      dz2     :     0.004765  d :     0.048912
      dxz     :     0.003034
      dyz     :     0.009517
      dx2y2   :     0.018119
      dxy     :     0.013478
  3 C s       :     3.126873  s :     3.126873
      pz      :     1.215176  p :     3.044105
      px      :     0.875983
      py      :     0.952947
      dz2     :     0.004207  d :     0.043894
      dxz     :     0.002402
      dyz     :     0.005994
      dx2y2   :     0.018129
      dxy     :     0.013162
  4 C s       :     3.164672  s :     3.164672
      pz      :     1.085058  p :     3.044755
      px      :     0.944030
      py      :     1.015666
      dz2     :     0.004561  d :     0.044432
      dxz     :     0.004926
      dyz     :     0.003433
      dx2y2   :     0.014696
      dxy     :     0.016817
  5 C s       :     3.164790  s :     3.164790
      pz      :     0.875765  p :     2.922287
      px      :     0.971457
      py      :     1.075064
      dz2     :     0.004786  d :     0.048413
      dxz     :     0.008535
      dyz     :     0.004290
      dx2y2   :     0.013363
      dxy     :     0.017440
  6 H s       :     0.792030  s :     0.792030
  7 H s       :     0.745362  s :     0.745362
  8 C s       :     2.940163  s :     2.940163
      pz      :     0.659240  p :     2.126690
      px      :     0.872621
      py      :     0.594829
      dz2     :     0.008750  d :     0.141263
      dxz     :     0.015884
      dyz     :     0.025846
      dx2y2   :     0.054097
      dxy     :     0.036686
  9 H s       :     0.795684  s :     0.795684
 10 N s       :     3.684367  s :     3.684367
      pz      :     1.765302  p :     4.235444
      px      :     1.292113
      py      :     1.178029
      dz2     :     0.002673  d :     0.036872
      dxz     :     0.005902
      dyz     :     0.006584
      dx2y2   :     0.011085
      dxy     :     0.010628
 11 O s       :     3.896968  s :     3.896968
      pz      :     1.522073  p :     4.711335
      px      :     1.653242
      py      :     1.536020
      dz2     :     0.003076  d :     0.030832
      dxz     :     0.004875
      dyz     :     0.006977
      dx2y2   :     0.006199
      dxy     :     0.009705
 12 O s       :     3.907125  s :     3.907125
      pz      :     1.864874  p :     4.821487
      px      :     1.429835
      py      :     1.526779
      dz2     :     0.005037  d :     0.032548
      dxz     :     0.000509
      dyz     :     0.004936
      dx2y2   :     0.016721
      dxy     :     0.005345
 13 H s       :     0.518247  s :     0.518247
 14 H s       :     0.781295  s :     0.781295
 15 H s       :     0.558367  s :     0.558367
 16 H s       :     0.627408  s :     0.627408
 17 H s       :     0.497413  s :     0.497413
 18 O s       :     3.905746  s :     3.905746
      pz      :     1.484554  p :     4.990101
      px      :     1.511840
      py      :     1.993707
      dz2     :     0.016999  d :     0.030774
      dxz     :     0.001037
      dyz     :     0.001097
      dx2y2   :     0.010214
      dxy     :     0.001428
 19 H s       :     0.562301  s :     0.562301


                     *******************************
                     * LOEWDIN POPULATION ANALYSIS *
                     *******************************

----------------------
LOEWDIN ATOMIC CHARGES
----------------------
   0 C :   -0.197845
   1 C :    0.120997
   2 C :   -0.067942
   3 C :   -0.160264
   4 C :   -0.196578
   5 C :   -0.060047
   6 H :    0.140604
   7 H :    0.160667
   8 C :    0.249152
   9 H :    0.138310
  10 N :   -0.440713
  11 O :   -0.353836
  12 O :   -0.367308
  13 H :    0.357582
  14 H :    0.145872
  15 H :    0.280806
  16 H :    0.257491
  17 H :    0.314748
  18 O :   -0.645203
  19 H :    0.323507

-------------------------------
LOEWDIN REDUCED ORBITAL CHARGES
-------------------------------
  0 C s       :     2.905950  s :     2.905950
      pz      :     1.092351  p :     3.204504
      px      :     1.034784
      py      :     1.077368
      dz2     :     0.007170  d :     0.087391
      dxz     :     0.007747
      dyz     :     0.005670
      dx2y2   :     0.034682
      dxy     :     0.032123
  1 C s       :     2.850456  s :     2.850456
      pz      :     0.819204  p :     2.873182
      px      :     1.054093
      py      :     0.999885
      dz2     :     0.009675  d :     0.155365
      dxz     :     0.020096
      dyz     :     0.031769
      dx2y2   :     0.046198
      dxy     :     0.047627
  2 C s       :     2.918330  s :     2.918330
      pz      :     0.885062  p :     3.052514
      px      :     1.088964
      py      :     1.078488
      dz2     :     0.007110  d :     0.097097
      dxz     :     0.004223
      dyz     :     0.018984
      dx2y2   :     0.037483
      dxy     :     0.029297
  3 C s       :     2.862173  s :     2.862173
      pz      :     1.157227  p :     3.199092
      px      :     0.992569
      py      :     1.049296
      dz2     :     0.007742  d :     0.099000
      dxz     :     0.004653
      dyz     :     0.011419
      dx2y2   :     0.043031
      dxy     :     0.032154
  4 C s       :     2.905657  s :     2.905657
      pz      :     1.069172  p :     3.199944
      px      :     1.062087
      py      :     1.068685
      dz2     :     0.007167  d :     0.090977
      dxz     :     0.009094
      dyz     :     0.005678
      dx2y2   :     0.032531
      dxy     :     0.036507
  5 C s       :     2.914431  s :     2.914431
      pz      :     0.884925  p :     3.048834
      px      :     1.080861
      py      :     1.083048
      dz2     :     0.007119  d :     0.096782
      dxz     :     0.016307
      dyz     :     0.008027
      dx2y2   :     0.028964
      dxy     :     0.036365
  6 H s       :     0.859396  s :     0.859396
  7 H s       :     0.839333  s :     0.839333
  8 C s       :     2.843744  s :     2.843744
      pz      :     0.686482  p :     2.603854
      px      :     1.020924
      py      :     0.896448
      dz2     :     0.019336  d :     0.303250
      dxz     :     0.029979
      dyz     :     0.052055
      dx2y2   :     0.121420
      dxy     :     0.080461
  9 H s       :     0.861690  s :     0.861690
 10 N s       :     3.195703  s :     3.195703
      pz      :     1.733987  p :     4.181707
      px      :     1.249902
      py      :     1.197818
      dz2     :     0.003584  d :     0.063303
      dxz     :     0.007304
      dyz     :     0.009846
      dx2y2   :     0.021656
      dxy     :     0.020913
 11 O s       :     3.560891  s :     3.560891
      pz      :     1.498999  p :     4.739672
      px      :     1.665950
      py      :     1.574724
      dz2     :     0.006693  d :     0.053272
      dxz     :     0.005613
      dyz     :     0.008240
      dx2y2   :     0.011468
      dxy     :     0.021259
 12 O s       :     3.535900  s :     3.535900
      pz      :     1.833871  p :     4.779672
      px      :     1.396884
      py      :     1.548916
      dz2     :     0.007508  d :     0.051736
      dxz     :     0.001099
      dyz     :     0.006204
      dx2y2   :     0.026069
      dxy     :     0.010856
 13 H s       :     0.642418  s :     0.642418
 14 H s       :     0.854128  s :     0.854128
 15 H s       :     0.719194  s :     0.719194
 16 H s       :     0.742509  s :     0.742509
 17 H s       :     0.685252  s :     0.685252
 18 O s       :     3.617417  s :     3.617417
      pz      :     1.475396  p :     4.990140
      px      :     1.520031
      py      :     1.994713
      dz2     :     0.021292  d :     0.037645
      dxz     :     0.001669
      dyz     :     0.001135
      dx2y2   :     0.012115
      dxy     :     0.001434
 19 H s       :     0.676493  s :     0.676493


                      *****************************
                      * MAYER POPULATION ANALYSIS *
                      *****************************

  NA   - Mulliken gross atomic population
  ZA   - Total nuclear charge
  QA   - Mulliken gross atomic charge
  VA   - Mayer's total valence
  BVA  - Mayer's bonded valence
  FA   - Mayer's free valence

  ATOM       NA         ZA         QA         VA         BVA        FA
  0 C      6.2688     6.0000    -0.2688     3.8632     3.8632     0.0000
  1 C      5.6059     6.0000     0.3941     3.8095     3.8095    -0.0000
  2 C      6.1513     6.0000    -0.1513     3.9020     3.9020     0.0000
  3 C      6.2149     6.0000    -0.2149     3.8350     3.8350     0.0000
  4 C      6.2539     6.0000    -0.2539     3.8786     3.8786     0.0000
  5 C      6.1355     6.0000    -0.1355     3.8688     3.8688     0.0000
  6 H      0.7920     1.0000     0.2080     0.9271     0.9271    -0.0000
  7 H      0.7454     1.0000     0.2546     0.9092     0.9092    -0.0000
  8 C      5.2081     6.0000     0.7919     3.7696     3.7696     0.0000
  9 H      0.7957     1.0000     0.2043     0.9267     0.9267    -0.0000
 10 N      7.9567     7.0000    -0.9567     2.6692     2.6692    -0.0000
 11 O      8.6391     8.0000    -0.6391     1.8202     1.8202     0.0000
 12 O      8.7612     8.0000    -0.7612     1.6961     1.6961     0.0000
 13 H      0.5182     1.0000     0.4818     0.7552     0.7552    -0.0000
 14 H      0.7813     1.0000     0.2187     0.9208     0.9208     0.0000
 15 H      0.5584     1.0000     0.4416     0.7944     0.7944    -0.0000
 16 H      0.6274     1.0000     0.3726     0.8312     0.8312     0.0000
 17 H      0.4974     1.0000     0.5026     0.7105     0.7105    -0.0000
 18 O      8.9266     8.0000    -0.9266     1.5105     1.5105     0.0000
 19 H      0.5623     1.0000     0.4377     0.7773     0.7773    -0.0000

  Mayer bond orders larger than 0.100000
B(  0-C ,  1-C ) :   1.3436 B(  0-C ,  2-C ) :   1.5101 B(  0-C ,  9-H ) :   0.9369 
B(  1-C ,  3-C ) :   1.3459 B(  1-C , 10-N ) :   1.0347 B(  2-C ,  4-C ) :   1.3742 
B(  2-C , 14-H ) :   0.9358 B(  3-C ,  5-C ) :   1.3527 B(  3-C ,  8-C ) :   1.0814 
B(  4-C ,  5-C ) :   1.5052 B(  4-C ,  6-H ) :   0.9397 B(  5-C ,  7-H ) :   0.9138 
B(  8-C , 11-O ) :   1.6808 B(  8-C , 12-O ) :   0.9462 B( 10-N , 15-H ) :   0.7507 
B( 10-N , 16-H ) :   0.8283 B( 12-O , 13-H ) :   0.7250 B( 17-H , 18-O ) :   0.6969 
B( 18-O , 19-H ) :   0.7803 

-------
TIMINGS
-------

Total SCF time: 0 days 0 hours 0 min 13 sec 

Total time                  ....      13.393 sec
Sum of individual times     ....      13.222 sec  ( 98.7%)

Fock matrix formation       ....      12.916 sec  ( 96.4%)
Diagonalization             ....       0.038 sec  (  0.3%)
Density matrix formation    ....       0.003 sec  (  0.0%)
Population analysis         ....       0.012 sec  (  0.1%)
Initial guess               ....       0.101 sec  (  0.8%)
Orbital Transformation      ....       0.000 sec  (  0.0%)
Orbital Orthonormalization  ....       0.000 sec  (  0.0%)
DIIS solution               ....       0.020 sec  (  0.2%)
SOSCF solution              ....       0.020 sec  (  0.1%)

Maximum memory used throughout the entire SCF-calculation: 229.0 MB

-------------------------   --------------------
FINAL SINGLE POINT ENERGY      -549.348169308157
-------------------------   --------------------

Storing actual gbw-file in scan_c7_h.001.gbw ... done

                            ***************************************
                            *     ORCA property calculations      *
                            ***************************************

                                    ---------------------
                                    Active property flags
                                    ---------------------
   (+) Dipole Moment


------------------------------------------------------------------------------
                       ORCA ELECTRIC PROPERTIES CALCULATION
------------------------------------------------------------------------------

Dipole Moment Calculation                       ... on
Quadrupole Moment Calculation                   ... off
Polarizability Calculation                      ... off
GBWName                                         ... scan_c7_h.gbw
Electron density                                ... scan_c7_h.scfp
The origin for moment calculation is the CENTER OF MASS  = ( 4.003614,  1.962022 -0.662610)

-------------
DIPOLE MOMENT
-------------
                                X             Y             Z
Electronic contribution:      2.02725       0.78287       2.58890
Nuclear contribution   :     -2.10673      -0.66044      -1.60339
                        -----------------------------------------
Total Dipole Moment    :     -0.07948       0.12243       0.98552
                        -----------------------------------------
Magnitude (a.u.)       :      0.99627
Magnitude (Debye)      :      2.53231



--------------------
Rotational spectrum 
--------------------
 
Rotational constants in cm-1:     0.049948     0.027957     0.023801 
Rotational constants in MHz :  1497.402381   838.116564   713.524494 

 Dipole components along the rotational axes: 
x,y,z [a.u.] :     0.290255    -0.063944    -0.950901 
x,y,z [Debye]:     0.737769    -0.162532    -2.416998 

 

         *************************************************************
                                TRAJECTORY STEP   2
                  B  :   2.10000000
         *************************************************************
---------------------------------
CARTESIAN COORDINATES (ANGSTROEM)
---------------------------------
  C      0.000000    0.000000    0.000000
  C      1.410409    0.000000    0.000000
  C     -0.724320    1.183586    0.000000
  C      2.073292    1.253208   -0.044708
  C     -0.064411    2.419058   -0.039207
  C      1.323048    2.445080   -0.047743
  H     -0.629466    3.347001   -0.041088
  H      1.852429    3.392160   -0.071804
  C      3.545723    1.317753    0.000066
  H     -0.520004   -0.956528    0.019731
  N      2.085359   -1.205080   -0.068653
  O      4.312423    0.364488    0.139874
  O      4.032585    2.583306   -0.125203
  H      5.005653    2.480252   -0.067898
  H     -1.811547    1.143588    0.009074
  H      3.068328   -1.165755    0.178380
  H      1.581522   -2.004078    0.295737
  H      3.614326    1.206692   -2.095873
  O      3.645596    1.156070   -3.051221
  H      4.578747    1.183939   -3.262607

----------------------------
CARTESIAN COORDINATES (A.U.)
----------------------------
  NO LB      ZA    FRAG     MASS         X           Y           Z
   0 C     6.0000    0    12.011    0.000000    0.000000    0.000000
   1 C     6.0000    0    12.011    2.665286    0.000000    0.000000
   2 C     6.0000    0    12.011   -1.368767    2.236654    0.000000
   3 C     6.0000    0    12.011    3.917954    2.368220   -0.084487
   4 C     6.0000    0    12.011   -0.121718    4.571357   -0.074090
   5 C     6.0000    0    12.011    2.500199    4.620531   -0.090221
   6 H     1.0000    0     1.008   -1.189519    6.324915   -0.077645
   7 H     1.0000    0     1.008    3.500584    6.410253   -0.135689
   8 C     6.0000    0    12.011    6.700446    2.490192    0.000125
   9 H     1.0000    0     1.008   -0.982664   -1.807577    0.037287
  10 N     7.0000    0    14.007    3.940757   -2.277270   -0.129736
  11 O     8.0000    0    15.999    8.149298    0.688782    0.264323
  12 O     8.0000    0    15.999    7.620482    4.881740   -0.236599
  13 H     1.0000    0     1.008    9.459313    4.686996   -0.128308
  14 H     1.0000    0     1.008   -3.423328    2.161068    0.017147
  15 H     1.0000    0     1.008    5.798299   -2.202959    0.337089
  16 H     1.0000    0     1.008    2.988644   -3.787158    0.558863
  17 H     1.0000    0     1.008    6.830087    2.280318   -3.960625
  18 O     8.0000    0    15.999    6.889178    2.184655   -5.765973
  19 H     1.0000    0     1.008    8.652578    2.237321   -6.165434

--------------------------------
INTERNAL COORDINATES (ANGSTROEM)
--------------------------------
 C      0   0   0     0.000000000000     0.00000000     0.00000000
 C      1   0   0     1.410408792387     0.00000000     0.00000000
 C      1   2   0     1.387629674561   121.46540976     0.00000000
 C      2   1   3     1.418429715822   117.86149259   357.95682680
 C      3   1   2     1.401216550379   120.41314464     1.85928728
 C      5   3   1     1.387728922094   119.18088952   358.56672225
 H      5   3   1     1.086448109445   120.54301814   179.88964476
 H      6   5   3     1.085257810950   120.27815199   180.37435074
 C      4   2   1     1.474525319058   120.29082617   177.88235003
 H      1   2   3     1.088916721971   118.52499331   181.18172947
 N      2   1   3     1.382927159506   119.21307977   183.26061362
 O      9   4   2     1.231295327431   126.25299933   356.29999903
 O      9   4   2     1.361745810407   113.26023456   176.60892359
 H     13   9   4     0.980186199946   104.58659711   179.32147663
 H      3   1   2     1.088000665320   119.35735619   180.54826763
 H     11   2   1     1.014297666448   115.28426224   195.45494424
 H     11   2   1     1.012437828384   115.27373933   333.44819984
 H      9   4   2     2.100000000000    90.00000000    90.00000000
 O     18   9   4     0.957200000000   180.00000000    90.00000000
 H     19   9   4     0.957200000000   104.52000000   180.00000000

---------------------------
INTERNAL COORDINATES (A.U.)
---------------------------
 C      0   0   0     0.000000000000     0.00000000     0.00000000
 C      1   0   0     2.665286354486     0.00000000     0.00000000
 C      1   2   0     2.622240060223   121.46540976     0.00000000
 C      2   1   3     2.680443703119   117.86149259   357.95682680
 C      3   1   2     2.647915534534   120.41314464     1.85928728
 C      5   3   1     2.622427610879   119.18088952   358.56672225
 H      5   3   1     2.053089385568   120.54301814   179.88964476
 H      6   5   3     2.050840047394   120.27815199   180.37435074
 C      4   2   1     2.786449030552   120.29082617   177.88235003
 H      1   2   3     2.057754387172   118.52499331   181.18172947
 N      2   1   3     2.613353594628   119.21307977   183.26061362
 O      9   4   2     2.326810958821   126.25299933   356.29999903
 O      9   4   2     2.573326645684   113.26023456   176.60892359
 H     13   9   4     1.852283478147   104.58659711   179.32147663
 H      3   1   2     2.056023290979   119.35735619   180.54826763
 H     11   2   1     1.916744807862   115.28426224   195.45494424
 H     11   2   1     1.913230223268   115.27373933   333.44819984
 H      9   4   2     3.968424881235    90.00000000    90.00000000
 O     18   9   4     1.808845855389   180.00000000    90.00000000
 H     19   9   4     1.808845855389   104.52000000   180.00000000



           ************************************************************
           *        Program running with 4 parallel MPI-processes     *
           *              working on a common directory               *
           ************************************************************
------------------------------------------------------------------------------
                   ___                                                        
                  /   \      - P O W E R E D   B Y -                         
                 /     \                                                     
                 |  |  |   _    _      __       _____    __    __             
                 |  |  |  | |  | |    /  \     |  _  \  |  |  /  |          
                  \  \/   | |  | |   /    \    | | | |  |  | /  /          
                 / \  \   | |__| |  /  /\  \   | |_| |  |  |/  /          
                |  |  |   |  __  | /  /__\  \  |    /   |      \           
                |  |  |   | |  | | |   __   |  |    \   |  |\   \          
                \     /   | |  | | |  |  |  |  | |\  \  |  | \   \       
                 \___/    |_|  |_| |__|  |__|  |_| \__\ |__|  \__/        
                                                                              
                      - O R C A' S   B I G   F R I E N D -                    
                                      &                                       
                       - I N T E G R A L  F E E D E R -                       
                                                                              
 v1 FN, 2020, v2 2021                                                         
------------------------------------------------------------------------------


Reading SHARK input file scan_c7_h.SHARKINP.tmp ... ok
----------------------
SHARK INTEGRAL PACKAGE
----------------------

Number of atoms                             ...     20
Number of basis functions                   ...    172
Number of shells                            ...     84
Maximum angular momentum                    ...      2
Integral batch strategy                     ... SHARK/LIBINT Hybrid
RI-J (if used) integral strategy            ... SPLIT-RIJ (Revised 2003 algorithm where possible)
Printlevel                                  ...      1
Contraction scheme used                     ... SEGMENTED contraction
Coulomb Range Separation                    ... NOT USED
Exchange Range Separation                   ... NOT USED
Finite Nucleus Model                        ... NOT USED
Auxiliary Coulomb fitting basis             ... NOT available
Auxiliary J/K fitting basis                 ... NOT available
Auxiliary Correlation fitting basis         ... NOT available
Auxiliary 'external' fitting basis          ... NOT available
Integral threshold                          ...     1.000000e-10
Primitive cut-off                           ...     1.000000e-11
Primitive pair pre-selection threshold      ...     1.000000e-11

Calculating pre-screening integrals         ... done (  0.0 sec) Dimension = 84
Organizing shell pair data                  ... done (  0.0 sec)
Shell pair information
Total number of shell pairs                 ...      3570
Shell pairs after pre-screening             ...      3199
Total number of primitive shell pairs       ...     20559
Primitive shell pairs kept                  ...     11291
          la=0 lb=0:   1134 shell pairs
          la=1 lb=0:   1046 shell pairs
          la=1 lb=1:    246 shell pairs
          la=2 lb=0:    480 shell pairs
          la=2 lb=1:    234 shell pairs
          la=2 lb=2:     59 shell pairs

Calculating one electron integrals          ... done (  0.0 sec)
Calculating Nuclear repulsion               ... done (  0.0 sec) ENN=    607.346045290711 Eh

SHARK setup successfully completed in   0.1 seconds

Maximum memory used throughout the entire GTOINT-calculation: 11.0 MB


           ************************************************************
           *        Program running with 4 parallel MPI-processes     *
           *              working on a common directory               *
           ************************************************************

Diagonalization of the overlap matrix:
Smallest eigenvalue                        ... 4.226e-04
Time for diagonalization                   ...    0.004 sec
Threshold for overlap eigenvalues          ... 1.000e-08
Number of eigenvalues below threshold      ... 0
Time for construction of square roots      ...    0.001 sec
Total time needed                          ...    0.005 sec

--------------
SCF ITERATIONS
--------------
ITER       Energy         Delta-E        Max-DP      RMS-DP      [F,P]     Damp
               ***  Starting incremental Fock matrix formation  ***
                      *** Initiating the SOSCF procedure ***
                      *** Re-Reading the Fockian *** 
                      *** Removing any level shift *** 
ITER      Energy       Delta-E        Grad      Rot      Max-DP    RMS-DP
  0   -549.35093046 -549.3509304584  0.001607  0.001607  0.008701  0.000205
               *** Restarting incremental Fock matrix formation ***
  1   -549.35104960  -0.0001191450  0.000477  0.000607  0.002306  0.000058
  2   -549.35106044  -0.0000108322  0.000139  0.000254  0.000837  0.000019
                 **** Energy Check signals convergence ****
              ***Rediagonalizing the Fockian in SOSCF/NRSCF***

               *****************************************************
               *                     SUCCESS                       *
               *           SCF CONVERGED AFTER   3 CYCLES          *
               *****************************************************

Total Energy       :         -549.35106116 Eh          -14948.60235 eV
  Last Energy change         ...   -7.2620e-07  Tolerance :   1.0000e-06
  Last MAX-Density change    ...    1.5528e-04  Tolerance :   1.0000e-05
             **** THE GBW FILE WAS UPDATED (scan_c7_h.gbw) ****
             **** DENSITY scan_c7_h.scfp WAS UPDATED ****
             **** ENERGY FILE WAS UPDATED (scan_c7_h.en.tmp) ****
             **** THE GBW FILE WAS UPDATED (scan_c7_h.gbw) ****
             **** DENSITY scan_c7_h.scfp WAS UPDATED ****
Total SCF time: 0 days 0 hours 0 min 4 sec 

Maximum memory used throughout the entire SCF-calculation: 228.8 MB

-------------------------   --------------------
FINAL SINGLE POINT ENERGY      -549.351061161791
-------------------------   --------------------

Storing actual gbw-file in scan_c7_h.002.gbw ... done

                            ***************************************
                            *     ORCA property calculations      *
                            ***************************************

                                    ---------------------
                                    Active property flags
                                    ---------------------
   (+) Dipole Moment


------------------------------------------------------------------------------
                       ORCA ELECTRIC PROPERTIES CALCULATION
------------------------------------------------------------------------------

Dipole Moment Calculation                       ... on
Quadrupole Moment Calculation                   ... off
Polarizability Calculation                      ... off
GBWName                                         ... scan_c7_h.gbw
Electron density                                ... scan_c7_h.scfp
The origin for moment calculation is the CENTER OF MASS  = ( 4.004331,  1.960862 -0.684510)

-------------
DIPOLE MOMENT
-------------
                                X             Y             Z
Electronic contribution:      2.03040       0.78918       2.67959
Nuclear contribution   :     -2.10377      -0.66523      -1.69371
                        -----------------------------------------
Total Dipole Moment    :     -0.07338       0.12395       0.98588
                        -----------------------------------------
Magnitude (a.u.)       :      0.99635
Magnitude (Debye)      :      2.53251



--------------------
Rotational spectrum 
--------------------
 
Rotational constants in cm-1:     0.048858     0.027522     0.023734 
Rotational constants in MHz :  1464.712256   825.095336   711.518082 

 Dipole components along the rotational axes: 
x,y,z [a.u.] :    -0.296491    -0.061927     0.949193 
x,y,z [Debye]:    -0.753620    -0.157405     2.412656 

 

         *************************************************************
                                TRAJECTORY STEP   3
                  B  :   2.20000000
         *************************************************************
---------------------------------
CARTESIAN COORDINATES (ANGSTROEM)
---------------------------------
  C      0.000000    0.000000    0.000000
  C      1.410409    0.000000    0.000000
  C     -0.724320    1.183586    0.000000
  C      2.073292    1.253208   -0.044708
  C     -0.064411    2.419058   -0.039207
  C      1.323048    2.445080   -0.047743
  H     -0.629466    3.347001   -0.041088
  H      1.852429    3.392160   -0.071804
  C      3.545723    1.317753    0.000066
  H     -0.520004   -0.956528    0.019731
  N      2.085359   -1.205080   -0.068653
  O      4.312423    0.364488    0.139874
  O      4.032585    2.583306   -0.125203
  H      5.005653    2.480252   -0.067898
  H     -1.811547    1.143588    0.009074
  H      3.068328   -1.165755    0.178380
  H      1.581522   -2.004078    0.295737
  H      3.617593    1.201403   -2.195679
  O      3.648863    1.150781   -3.151028
  H      4.582014    1.178650   -3.362414

----------------------------
CARTESIAN COORDINATES (A.U.)
----------------------------
  NO LB      ZA    FRAG     MASS         X           Y           Z
   0 C     6.0000    0    12.011    0.000000    0.000000    0.000000
   1 C     6.0000    0    12.011    2.665286    0.000000    0.000000
   2 C     6.0000    0    12.011   -1.368767    2.236654    0.000000
   3 C     6.0000    0    12.011    3.917954    2.368220   -0.084487
   4 C     6.0000    0    12.011   -0.121718    4.571357   -0.074090
   5 C     6.0000    0    12.011    2.500199    4.620531   -0.090221
   6 H     1.0000    0     1.008   -1.189519    6.324915   -0.077645
   7 H     1.0000    0     1.008    3.500584    6.410253   -0.135689
   8 C     6.0000    0    12.011    6.700446    2.490192    0.000125
   9 H     1.0000    0     1.008   -0.982664   -1.807577    0.037287
  10 N     7.0000    0    14.007    3.940757   -2.277270   -0.129736
  11 O     8.0000    0    15.999    8.149298    0.688782    0.264323
  12 O     8.0000    0    15.999    7.620482    4.881740   -0.236599
  13 H     1.0000    0     1.008    9.459313    4.686996   -0.128308
  14 H     1.0000    0     1.008   -3.423328    2.161068    0.017147
  15 H     1.0000    0     1.008    5.798299   -2.202959    0.337089
  16 H     1.0000    0     1.008    2.988644   -3.787158    0.558863
  17 H     1.0000    0     1.008    6.836260    2.270324   -4.149232
  18 O     8.0000    0    15.999    6.895352    2.174661   -5.954580
  19 H     1.0000    0     1.008    8.658752    2.227327   -6.354041

--------------------------------
INTERNAL COORDINATES (ANGSTROEM)
--------------------------------
 C      0   0   0     0.000000000000     0.00000000     0.00000000
 C      1   0   0     1.410408792387     0.00000000     0.00000000
 C      1   2   0     1.387629674561   121.46540976     0.00000000
 C      2   1   3     1.418429715822   117.86149259   357.95682680
 C      3   1   2     1.401216550379   120.41314464     1.85928728
 C      5   3   1     1.387728922094   119.18088952   358.56672225
 H      5   3   1     1.086448109445   120.54301814   179.88964476
 H      6   5   3     1.085257810950   120.27815199   180.37435074
 C      4   2   1     1.474525319058   120.29082617   177.88235003
 H      1   2   3     1.088916721971   118.52499331   181.18172947
 N      2   1   3     1.382927159506   119.21307977   183.26061362
 O      9   4   2     1.231295327431   126.25299933   356.29999903
 O      9   4   2     1.361745810407   113.26023456   176.60892359
 H     13   9   4     0.980186199946   104.58659711   179.32147663
 H      3   1   2     1.088000665320   119.35735619   180.54826763
 H     11   2   1     1.014297666448   115.28426224   195.45494424
 H     11   2   1     1.012437828384   115.27373933   333.44819984
 H      9   4   2     2.200000000000    90.00000000    90.00000000
 O     18   9   4     0.957200000000   180.00000000    90.00000000
 H     19   9   4     0.957200000000   104.52000000   180.00000000

---------------------------
INTERNAL COORDINATES (A.U.)
---------------------------
 C      0   0   0     0.000000000000     0.00000000     0.00000000
 C      1   0   0     2.665286354486     0.00000000     0.00000000
 C      1   2   0     2.622240060223   121.46540976     0.00000000
 C      2   1   3     2.680443703119   117.86149259   357.95682680
 C      3   1   2     2.647915534534   120.41314464     1.85928728
 C      5   3   1     2.622427610879   119.18088952   358.56672225
 H      5   3   1     2.053089385568   120.54301814   179.88964476
 H      6   5   3     2.050840047394   120.27815199   180.37435074
 C      4   2   1     2.786449030552   120.29082617   177.88235003
 H      1   2   3     2.057754387172   118.52499331   181.18172947
 N      2   1   3     2.613353594628   119.21307977   183.26061362
 O      9   4   2     2.326810958821   126.25299933   356.29999903
 O      9   4   2     2.573326645684   113.26023456   176.60892359
 H     13   9   4     1.852283478147   104.58659711   179.32147663
 H      3   1   2     2.056023290979   119.35735619   180.54826763
 H     11   2   1     1.916744807862   115.28426224   195.45494424
 H     11   2   1     1.913230223268   115.27373933   333.44819984
 H      9   4   2     4.157397494627    90.00000000    90.00000000
 O     18   9   4     1.808845855389   180.00000000    90.00000000
 H     19   9   4     1.808845855389   104.52000000   180.00000000



           ************************************************************
           *        Program running with 4 parallel MPI-processes     *
           *              working on a common directory               *
           ************************************************************
------------------------------------------------------------------------------
                   ___                                                        
                  /   \      - P O W E R E D   B Y -                         
                 /     \                                                     
                 |  |  |   _    _      __       _____    __    __             
                 |  |  |  | |  | |    /  \     |  _  \  |  |  /  |          
                  \  \/   | |  | |   /    \    | | | |  |  | /  /          
                 / \  \   | |__| |  /  /\  \   | |_| |  |  |/  /          
                |  |  |   |  __  | /  /__\  \  |    /   |      \           
                |  |  |   | |  | | |   __   |  |    \   |  |\   \          
                \     /   | |  | | |  |  |  |  | |\  \  |  | \   \       
                 \___/    |_|  |_| |__|  |__|  |_| \__\ |__|  \__/        
                                                                              
                      - O R C A' S   B I G   F R I E N D -                    
                                      &                                       
                       - I N T E G R A L  F E E D E R -                       
                                                                              
 v1 FN, 2020, v2 2021                                                         
------------------------------------------------------------------------------


Reading SHARK input file scan_c7_h.SHARKINP.tmp ... ok
----------------------
SHARK INTEGRAL PACKAGE
----------------------

Number of atoms                             ...     20
Number of basis functions                   ...    172
Number of shells                            ...     84
Maximum angular momentum                    ...      2
Integral batch strategy                     ... SHARK/LIBINT Hybrid
RI-J (if used) integral strategy            ... SPLIT-RIJ (Revised 2003 algorithm where possible)
Printlevel                                  ...      1
Contraction scheme used                     ... SEGMENTED contraction
Coulomb Range Separation                    ... NOT USED
Exchange Range Separation                   ... NOT USED
Finite Nucleus Model                        ... NOT USED
Auxiliary Coulomb fitting basis             ... NOT available
Auxiliary J/K fitting basis                 ... NOT available
Auxiliary Correlation fitting basis         ... NOT available
Auxiliary 'external' fitting basis          ... NOT available
Integral threshold                          ...     1.000000e-10
Primitive cut-off                           ...     1.000000e-11
Primitive pair pre-selection threshold      ...     1.000000e-11

Calculating pre-screening integrals         ... done (  0.0 sec) Dimension = 84
Organizing shell pair data                  ... done (  0.0 sec)
Shell pair information
Total number of shell pairs                 ...      3570
Shell pairs after pre-screening             ...      3191
Total number of primitive shell pairs       ...     20559
Primitive shell pairs kept                  ...     11254
          la=0 lb=0:   1134 shell pairs
          la=1 lb=0:   1042 shell pairs
          la=1 lb=1:    246 shell pairs
          la=2 lb=0:    476 shell pairs
          la=2 lb=1:    234 shell pairs
          la=2 lb=2:     59 shell pairs

Calculating one electron integrals          ... done (  0.0 sec)
Calculating Nuclear repulsion               ... done (  0.0 sec) ENN=    605.205221859672 Eh

SHARK setup successfully completed in   0.1 seconds

Maximum memory used throughout the entire GTOINT-calculation: 11.0 MB


           ************************************************************
           *        Program running with 4 parallel MPI-processes     *
           *              working on a common directory               *
           ************************************************************

Diagonalization of the overlap matrix:
Smallest eigenvalue                        ... 4.237e-04
Time for diagonalization                   ...    0.004 sec
Threshold for overlap eigenvalues          ... 1.000e-08
Number of eigenvalues below threshold      ... 0
Time for construction of square roots      ...    0.001 sec
Total time needed                          ...    0.006 sec

--------------
SCF ITERATIONS
--------------
ITER       Energy         Delta-E        Max-DP      RMS-DP      [F,P]     Damp
               ***  Starting incremental Fock matrix formation  ***
                      *** Initiating the SOSCF procedure ***
                      *** Re-Reading the Fockian *** 
                      *** Removing any level shift *** 
ITER      Energy       Delta-E        Grad      Rot      Max-DP    RMS-DP
  0   -549.35307678 -549.3530767783  0.001380  0.001380  0.006787  0.000180
               *** Restarting incremental Fock matrix formation ***
  1   -549.35316475  -0.0000879682  0.000396  0.000506  0.001910  0.000052
  2   -549.35317258  -0.0000078359  0.000108  0.000201  0.000662  0.000017
                 **** Energy Check signals convergence ****
              ***Rediagonalizing the Fockian in SOSCF/NRSCF***

               *****************************************************
               *                     SUCCESS                       *
               *           SCF CONVERGED AFTER   3 CYCLES          *
               *****************************************************

Total Energy       :         -549.35317312 Eh          -14948.65982 eV
  Last Energy change         ...   -5.4048e-07  Tolerance :   1.0000e-06
  Last MAX-Density change    ...    1.3373e-04  Tolerance :   1.0000e-05
             **** THE GBW FILE WAS UPDATED (scan_c7_h.gbw) ****
             **** DENSITY scan_c7_h.scfp WAS UPDATED ****
             **** ENERGY FILE WAS UPDATED (scan_c7_h.en.tmp) ****
             **** THE GBW FILE WAS UPDATED (scan_c7_h.gbw) ****
             **** DENSITY scan_c7_h.scfp WAS UPDATED ****
Total SCF time: 0 days 0 hours 0 min 4 sec 

Maximum memory used throughout the entire SCF-calculation: 228.8 MB

-------------------------   --------------------
FINAL SINGLE POINT ENERGY      -549.353173122949
-------------------------   --------------------

Storing actual gbw-file in scan_c7_h.003.gbw ... done

                            ***************************************
                            *     ORCA property calculations      *
                            ***************************************

[...]

-------------
DIPOLE MOMENT
-------------
                                X             Y             Z
Electronic contribution:      1.97158       1.18969       9.66063
Nuclear contribution   :     -1.87318      -1.03853      -8.73871
                        -----------------------------------------
Total Dipole Moment    :      0.09840       0.15116       0.92192
                        -----------------------------------------
Magnitude (a.u.)       :      0.93940
Magnitude (Debye)      :      2.38776



--------------------
Rotational spectrum 
--------------------
 
Rotational constants in cm-1:     0.027131     0.007813     0.007214 
Rotational constants in MHz :   813.361461   234.234858   216.262563 

 Dipole components along the rotational axes: 
x,y,z [a.u.] :     0.876897    -0.318417    -0.110139 
x,y,z [Debye]:     2.228895    -0.809351    -0.279951 

 

         *************************************************************
                                TRAJECTORY STEP  81
                  B  :  10.00000000
         *************************************************************
---------------------------------
CARTESIAN COORDINATES (ANGSTROEM)
---------------------------------
  C      0.000000    0.000000    0.000000
  C      1.410409    0.000000    0.000000
  C     -0.724320    1.183586    0.000000
  C      2.073292    1.253208   -0.044708
  C     -0.064411    2.419058   -0.039207
  C      1.323048    2.445080   -0.047743
  H     -0.629466    3.347001   -0.041088
  H      1.852429    3.392160   -0.071804
  C      3.545723    1.317753    0.000066
  H     -0.520004   -0.956528    0.019731
  N      2.085359   -1.205080   -0.068653
  O      4.312423    0.364488    0.139874
  O      4.032585    2.583306   -0.125203
  H      5.005653    2.480252   -0.067898
  H     -1.811547    1.143588    0.009074
  H      3.068328   -1.165755    0.178380
  H      1.581522   -2.004078    0.295737
  H      3.872404    0.788893   -9.980594
  O      3.903674    0.738270  -10.935943
  H      4.836825    0.766140  -11.147329

----------------------------
CARTESIAN COORDINATES (A.U.)
----------------------------
  NO LB      ZA    FRAG     MASS         X           Y           Z
   0 C     6.0000    0    12.011    0.000000    0.000000    0.000000
   1 C     6.0000    0    12.011    2.665286    0.000000    0.000000
   2 C     6.0000    0    12.011   -1.368767    2.236654    0.000000
   3 C     6.0000    0    12.011    3.917954    2.368220   -0.084487
   4 C     6.0000    0    12.011   -0.121718    4.571357   -0.074090
   5 C     6.0000    0    12.011    2.500199    4.620531   -0.090221
   6 H     1.0000    0     1.008   -1.189519    6.324915   -0.077645
   7 H     1.0000    0     1.008    3.500584    6.410253   -0.135689
   8 C     6.0000    0    12.011    6.700446    2.490192    0.000125
   9 H     1.0000    0     1.008   -0.982664   -1.807577    0.037287
  10 N     7.0000    0    14.007    3.940757   -2.277270   -0.129736
  11 O     8.0000    0    15.999    8.149298    0.688782    0.264323
  12 O     8.0000    0    15.999    7.620482    4.881740   -0.236599
  13 H     1.0000    0     1.008    9.459313    4.686996   -0.128308
  14 H     1.0000    0     1.008   -3.423328    2.161068    0.017147
  15 H     1.0000    0     1.008    5.798299   -2.202959    0.337089
  16 H     1.0000    0     1.008    2.988644   -3.787158    0.558863
  17 H     1.0000    0     1.008    7.317784    1.490791  -18.860590
  18 O     8.0000    0    15.999    7.376875    1.395129  -20.665938
  19 H     1.0000    0     1.008    9.140276    1.447794  -21.065399

--------------------------------
INTERNAL COORDINATES (ANGSTROEM)
--------------------------------
 C      0   0   0     0.000000000000     0.00000000     0.00000000
 C      1   0   0     1.410408792387     0.00000000     0.00000000
 C      1   2   0     1.387629674561   121.46540976     0.00000000
 C      2   1   3     1.418429715822   117.86149259   357.95682680
 C      3   1   2     1.401216550379   120.41314464     1.85928728
 C      5   3   1     1.387728922094   119.18088952   358.56672225
 H      5   3   1     1.086448109445   120.54301814   179.88964476
 H      6   5   3     1.085257810950   120.27815199   180.37435074
 C      4   2   1     1.474525319058   120.29082617   177.88235003
 H      1   2   3     1.088916721971   118.52499331   181.18172947
 N      2   1   3     1.382927159506   119.21307977   183.26061362
 O      9   4   2     1.231295327431   126.25299933   356.29999903
 O      9   4   2     1.361745810407   113.26023456   176.60892359
 H     13   9   4     0.980186199946   104.58659711   179.32147663
 H      3   1   2     1.088000665320   119.35735619   180.54826763
 H     11   2   1     1.014297666448   115.28426224   195.45494424
 H     11   2   1     1.012437828384   115.27373933   333.44819984
 H      9   4   2    10.000000000000    90.00000000    90.00000000
 O     18   9   4     0.957200000000   180.00000000    90.00000000
 H     19   9   4     0.957200000000   104.52000000   180.00000000

---------------------------
INTERNAL COORDINATES (A.U.)
---------------------------
 C      0   0   0     0.000000000000     0.00000000     0.00000000
 C      1   0   0     2.665286354486     0.00000000     0.00000000
 C      1   2   0     2.622240060223   121.46540976     0.00000000
 C      2   1   3     2.680443703119   117.86149259   357.95682680
 C      3   1   2     2.647915534534   120.41314464     1.85928728
 C      5   3   1     2.622427610879   119.18088952   358.56672225
 H      5   3   1     2.053089385568   120.54301814   179.88964476
 H      6   5   3     2.050840047394   120.27815199   180.37435074
 C      4   2   1     2.786449030552   120.29082617   177.88235003
 H      1   2   3     2.057754387172   118.52499331   181.18172947
 N      2   1   3     2.613353594628   119.21307977   183.26061362
 O      9   4   2     2.326810958821   126.25299933   356.29999903
 O      9   4   2     2.573326645684   113.26023456   176.60892359
 H     13   9   4     1.852283478147   104.58659711   179.32147663
 H      3   1   2     2.056023290979   119.35735619   180.54826763
 H     11   2   1     1.916744807862   115.28426224   195.45494424
 H     11   2   1     1.913230223268   115.27373933   333.44819984
 H      9   4   2    18.897261339213    90.00000000    90.00000000
 O     18   9   4     1.808845855389   180.00000000    90.00000000
 H     19   9   4     1.808845855389   104.52000000   180.00000000



           ************************************************************
           *        Program running with 4 parallel MPI-processes     *
           *              working on a common directory               *
           ************************************************************
------------------------------------------------------------------------------
                   ___                                                        
                  /   \      - P O W E R E D   B Y -                         
                 /     \                                                     
                 |  |  |   _    _      __       _____    __    __             
                 |  |  |  | |  | |    /  \     |  _  \  |  |  /  |          
                  \  \/   | |  | |   /    \    | | | |  |  | /  /          
                 / \  \   | |__| |  /  /\  \   | |_| |  |  |/  /          
                |  |  |   |  __  | /  /__\  \  |    /   |      \           
                |  |  |   | |  | | |   __   |  |    \   |  |\   \          
                \     /   | |  | | |  |  |  |  | |\  \  |  | \   \       
                 \___/    |_|  |_| |__|  |__|  |_| \__\ |__|  \__/        
                                                                              
                      - O R C A' S   B I G   F R I E N D -                    
                                      &                                       
                       - I N T E G R A L  F E E D E R -                       
                                                                              
 v1 FN, 2020, v2 2021                                                         
------------------------------------------------------------------------------


Reading SHARK input file scan_c7_h.SHARKINP.tmp ... ok
----------------------
SHARK INTEGRAL PACKAGE
----------------------

Number of atoms                             ...     20
Number of basis functions                   ...    172
Number of shells                            ...     84
Maximum angular momentum                    ...      2
Integral batch strategy                     ... SHARK/LIBINT Hybrid
RI-J (if used) integral strategy            ... SPLIT-RIJ (Revised 2003 algorithm where possible)
Printlevel                                  ...      1
Contraction scheme used                     ... SEGMENTED contraction
Coulomb Range Separation                    ... NOT USED
Exchange Range Separation                   ... NOT USED
Finite Nucleus Model                        ... NOT USED
Auxiliary Coulomb fitting basis             ... NOT available
Auxiliary J/K fitting basis                 ... NOT available
Auxiliary Correlation fitting basis         ... NOT available
Auxiliary 'external' fitting basis          ... NOT available
Integral threshold                          ...     1.000000e-10
Primitive cut-off                           ...     1.000000e-11
Primitive pair pre-selection threshold      ...     1.000000e-11

Calculating pre-screening integrals         ... done (  0.0 sec) Dimension = 84
Organizing shell pair data                  ... done (  0.0 sec)
Shell pair information
Total number of shell pairs                 ...      3570
Shell pairs after pre-screening             ...      2599
Total number of primitive shell pairs       ...     20559
Primitive shell pairs kept                  ...      9742
          la=0 lb=0:    896 shell pairs
          la=1 lb=0:    849 shell pairs
          la=1 lb=1:    209 shell pairs
          la=2 lb=0:    395 shell pairs
          la=2 lb=1:    198 shell pairs
          la=2 lb=2:     52 shell pairs

Calculating one electron integrals          ... done (  0.0 sec)
Calculating Nuclear repulsion               ... done (  0.0 sec) ENN=    542.840887490889 Eh

SHARK setup successfully completed in   0.1 seconds

Maximum memory used throughout the entire GTOINT-calculation: 10.4 MB


           ************************************************************
           *        Program running with 4 parallel MPI-processes     *
           *              working on a common directory               *
           ************************************************************

Diagonalization of the overlap matrix:
Smallest eigenvalue                        ... 4.305e-04
Time for diagonalization                   ...    0.003 sec
Threshold for overlap eigenvalues          ... 1.000e-08
Number of eigenvalues below threshold      ... 0
Time for construction of square roots      ...    0.003 sec
Total time needed                          ...    0.006 sec

--------------
SCF ITERATIONS
--------------
ITER       Energy         Delta-E        Max-DP      RMS-DP      [F,P]     Damp
               ***  Starting incremental Fock matrix formation  ***
                      *** Initiating the SOSCF procedure ***
                      *** Re-Reading the Fockian *** 
                      *** Removing any level shift *** 
ITER      Energy       Delta-E        Grad      Rot      Max-DP    RMS-DP
  0   -549.35827469 -549.3582746900  0.000005  0.000005  0.000010  0.000000
               *** Restarting incremental Fock matrix formation ***
                 **** Energy Check signals convergence ****
              ***Rediagonalizing the Fockian in SOSCF/NRSCF***

               *****************************************************
               *                     SUCCESS                       *
               *           SCF CONVERGED AFTER   1 CYCLES          *
               *****************************************************

Total Energy       :         -549.35827469 Eh          -14948.79864 eV
  Last Energy change         ...   -5.4524e-10  Tolerance :   1.0000e-06
  Last MAX-Density change    ...    3.8572e-06  Tolerance :   1.0000e-05
             **** THE GBW FILE WAS UPDATED (scan_c7_h.gbw) ****
             **** DENSITY scan_c7_h.scfp WAS UPDATED ****
             **** ENERGY FILE WAS UPDATED (scan_c7_h.en.tmp) ****
             **** THE GBW FILE WAS UPDATED (scan_c7_h.gbw) ****
             **** DENSITY scan_c7_h.scfp WAS UPDATED ****
Total SCF time: 0 days 0 hours 0 min 2 sec 

Maximum memory used throughout the entire SCF-calculation: 228.2 MB

-------------------------   --------------------
FINAL SINGLE POINT ENERGY      -549.358274690574
-------------------------   --------------------

Storing actual gbw-file in scan_c7_h.081.gbw ... done

                            ***************************************
                            *     ORCA property calculations      *
                            ***************************************

                                    ---------------------
                                    Active property flags
                                    ---------------------
   (+) Dipole Moment


------------------------------------------------------------------------------
                       ORCA ELECTRIC PROPERTIES CALCULATION
------------------------------------------------------------------------------

Dipole Moment Calculation                       ... on
Quadrupole Moment Calculation                   ... off
Polarizability Calculation                      ... off
GBWName                                         ... scan_c7_h.gbw
Electron density                                ... scan_c7_h.scfp
The origin for moment calculation is the CENTER OF MASS  = ( 4.060958,  1.869189 -2.414562)

-------------
DIPOLE MOMENT
-------------
                                X             Y             Z
Electronic contribution:      1.96888       1.19449       9.75086
Nuclear contribution   :     -1.87022      -1.04332      -8.82903
                        -----------------------------------------
Total Dipole Moment    :      0.09865       0.15117       0.92182
                        -----------------------------------------
Magnitude (a.u.)       :      0.93933
Magnitude (Debye)      :      2.38759



--------------------
Rotational spectrum 
--------------------
 
Rotational constants in cm-1:     0.027116     0.007691     0.007108 
Rotational constants in MHz :   812.924742   230.564426   213.099865 

 Dipole components along the rotational axes: 
x,y,z [a.u.] :     0.877649    -0.316199    -0.109987 
x,y,z [Debye]:     2.230805    -0.803713    -0.279565 

 
                              **** TRAJECTORY DONE ***

                         SUMMARY OF THE CALCULATED SURFACE

------------------
TRAJECTORY RESULTS
------------------

Column   1: B

The Calculated Surface using the 'Actual Energy'
   2.00000000 -549.34816931
   2.10000000 -549.35106116
   2.20000000 -549.35317312
   2.30000000 -549.35470905
   2.40000000 -549.35581951
   2.50000000 -549.35661724
   2.60000000 -549.35718712
   2.70000000 -549.35759273
   2.80000000 -549.35788097
   2.90000000 -549.35808583
   3.00000000 -549.35823139
   3.10000000 -549.35833473
   3.20000000 -549.35840762
   3.30000000 -549.35845839
   3.40000000 -549.35849299
   3.50000000 -549.35851579
   3.60000000 -549.35853008
   3.70000000 -549.35853836
   3.80000000 -549.35854253
   3.90000000 -549.35854400
   4.00000000 -549.35854379
   4.10000000 -549.35854259
   4.20000000 -549.35854083
   4.30000000 -549.35853863
   4.40000000 -549.35853634
   4.50000000 -549.35853387
   4.60000000 -549.35853116
   4.70000000 -549.35852816
   4.80000000 -549.35852483
   4.90000000 -549.35852111
   5.00000000 -549.35851701
   5.10000000 -549.35851251
   5.20000000 -549.35850764
   5.30000000 -549.35850241
   5.40000000 -549.35849688
   5.50000000 -549.35849107
   5.60000000 -549.35848504
   5.70000000 -549.35847883
   5.80000000 -549.35847248
   5.90000000 -549.35846604
   6.00000000 -549.35845954
   6.10000000 -549.35845300
   6.20000000 -549.35844647
   6.30000000 -549.35843995
   6.40000000 -549.35843349
   6.50000000 -549.35842708
   6.60000000 -549.35842075
   6.70000000 -549.35841451
   6.80000000 -549.35840837
   6.90000000 -549.35840234
   7.00000000 -549.35839643
   7.10000000 -549.35839063
   7.20000000 -549.35838496
   7.30000000 -549.35837942
   7.40000000 -549.35837401
   7.50000000 -549.35836872
   7.60000000 -549.35836357
   7.70000000 -549.35835855
   7.80000000 -549.35835366
   7.90000000 -549.35834889
   8.00000000 -549.35834426
   8.10000000 -549.35833975
   8.20000000 -549.35833536
   8.30000000 -549.35833110
   8.40000000 -549.35832695
   8.50000000 -549.35832292
   8.60000000 -549.35831901
   8.70000000 -549.35831520
   8.80000000 -549.35831151
   8.90000000 -549.35830792
   9.00000000 -549.35830444
   9.10000000 -549.35830105
   9.20000000 -549.35829777
   9.30000000 -549.35829458
   9.40000000 -549.35829148
   9.50000000 -549.35828847
   9.60000000 -549.35828555
   9.70000000 -549.35828271
   9.80000000 -549.35827996
   9.90000000 -549.35827729
  10.00000000 -549.35827469

The Calculated Surface using the SCF energy
   2.00000000 -549.34816931
   2.10000000 -549.35106116
   2.20000000 -549.35317312
   2.30000000 -549.35470905
   2.40000000 -549.35581951
   2.50000000 -549.35661724
   2.60000000 -549.35718712
   2.70000000 -549.35759273
   2.80000000 -549.35788097
   2.90000000 -549.35808583
   3.00000000 -549.35823139
   3.10000000 -549.35833473
   3.20000000 -549.35840762
   3.30000000 -549.35845839
   3.40000000 -549.35849299
   3.50000000 -549.35851579
   3.60000000 -549.35853008
   3.70000000 -549.35853836
   3.80000000 -549.35854253
   3.90000000 -549.35854400
   4.00000000 -549.35854379
   4.10000000 -549.35854259
   4.20000000 -549.35854083
   4.30000000 -549.35853863
   4.40000000 -549.35853634
   4.50000000 -549.35853387
   4.60000000 -549.35853116
   4.70000000 -549.35852816
   4.80000000 -549.35852483
   4.90000000 -549.35852111
   5.00000000 -549.35851701
   5.10000000 -549.35851251
   5.20000000 -549.35850764
   5.30000000 -549.35850241
   5.40000000 -549.35849688
   5.50000000 -549.35849107
   5.60000000 -549.35848504
   5.70000000 -549.35847883
   5.80000000 -549.35847248
   5.90000000 -549.35846604
   6.00000000 -549.35845954
   6.10000000 -549.35845300
   6.20000000 -549.35844647
   6.30000000 -549.35843995
   6.40000000 -549.35843349
   6.50000000 -549.35842708
   6.60000000 -549.35842075
   6.70000000 -549.35841451
   6.80000000 -549.35840837
   6.90000000 -549.35840234
   7.00000000 -549.35839643
   7.10000000 -549.35839063
   7.20000000 -549.35838496
   7.30000000 -549.35837942
   7.40000000 -549.35837401
   7.50000000 -549.35836872
   7.60000000 -549.35836357
   7.70000000 -549.35835855
   7.80000000 -549.35835366
   7.90000000 -549.35834889
   8.00000000 -549.35834426
   8.10000000 -549.35833975
   8.20000000 -549.35833536
   8.30000000 -549.35833110
   8.40000000 -549.35832695
   8.50000000 -549.35832292
   8.60000000 -549.35831901
   8.70000000 -549.35831520
   8.80000000 -549.35831151
   8.90000000 -549.35830792
   9.00000000 -549.35830444
   9.10000000 -549.35830105
   9.20000000 -549.35829777
   9.30000000 -549.35829458
   9.40000000 -549.35829148
   9.50000000 -549.35828847
   9.60000000 -549.35828555
   9.70000000 -549.35828271
   9.80000000 -549.35827996
   9.90000000 -549.35827729
  10.00000000 -549.35827469


Timings for individual modules:

Sum of individual times         ...      301.342 sec (=   5.022 min)
GTO integral calculation        ...       37.074 sec (=   0.618 min)  12.3 %
SCF iterations                  ...      264.268 sec (=   4.404 min)  87.7 %
                             ****ORCA TERMINATED NORMALLY****
TOTAL RUN TIME: 0 days 0 hours 5 minutes 34 seconds 562 msec
