LAMMPS data file via write_data, version 2 Aug 2023, timestep = 100000, units = lj

864 atoms
1 atom types

-0.7937005259840997 8.730705785825096 xlo xhi
-0.7937005259840997 8.730705785825096 ylo yhi
-0.7937005259840997 8.730705785825096 zlo zhi

Masses

1 1

Pair Coeffs # lj/cut

1 1 1

Atoms # atomic

121 1 -0.7569435096685587 0.1854756166684044 0.6072462933886573 1 0 0
195 1 0.889388283111437 8.466571086226399 0.4549725673527419 0 0 0
660 1 0.15394750846327532 -0.18108144850841495 0.0853729015322853 1 0 0
164 1 1.8117280815567829 0.9032237543974736 -0.11063733997589284 0 1 0
60 1 0.46572734807637106 0.6533837632575961 -0.23109130133247344 1 0 -1
117 1 -0.3658729928746221 0.29181148636083326 -0.6800990043719797 0 0 0
744 1 -0.5585075388920727 8.55982850836766 -0.2656770983592692 0 -1 1
93 1 2.147608521463419 0.5536756592971177 0.7849441092046652 -1 0 0
541 1 2.4073523988628014 8.057632285462955 1.0714758649839082 -1 0 1
772 1 1.2709818831070636 1.1339291324527017 0.7740529467932414 0 1 0
88 1 1.6441891444038395 0.19639034314976975 8.612343895786424 -1 0 -1
559 1 2.104831757752041 -0.0684563468248001 -0.06401848698134849 0 1 0
330 1 2.7928774544054837 -0.3392318404138309 0.5208787942186247 -1 1 1
231 1 2.8373908939409698 0.5581883615631478 -0.09736174718605763 0 0 0
286 1 3.6807449014797005 0.03688940983936458 -0.05417695292870116 -1 0 0
627 1 3.7766202473963917 1.003136260876875 -0.5055744743940747 1 0 1
846 1 5.1910269508975 -0.35084676365582323 0.6899449807220573 1 0 1
130 1 5.604669339596928 8.658819835334123 -0.02016779858342262 1 -1 0
735 1 5.397621648887345 0.6134659136060849 0.615849653090283 -1 0 1
305 1 3.9489878953327833 -0.4177520546304502 0.8701562821425196 0 1 1
79 1 3.6158279655494647 7.845259771565241 0.8235269019779029 0 -1 0
96 1 6.172145400009288 0.4014465716178008 0.1091521483596416 -1 0 0
800 1 5.46395671592316 1.0163930388381606 -0.35636960254052163 -1 1 2
227 1 7.86213807099788 -0.7118755697963084 0.7281972781321195 0 1 1
68 1 6.208948502051616 0.7056118242778694 8.722343390569684 0 1 -1
526 1 0.03179477016446301 1.5905855996529592 0.9604755739777303 0 0 1
403 1 0.6471346488779963 1.5674197189607466 0.22714351253712234 0 0 0
519 1 -0.506162535222328 2.1214865968931225 0.1505176430407679 0 0 -1
743 1 0.8069630311042961 1.8889018763407022 8.346209652790186 0 1 0
437 1 3.1415450174508868 1.722209857671408 -0.24591064804841184 0 0 1
187 1 1.4600235726810165 1.8688542885377706 -0.32966759002386814 0 2 0
18 1 1.2539528180019786 2.1114329272677255 0.7314896186932137 1 0 0
57 1 0.46717293409674526 2.430605651792606 -0.4311141986946985 0 0 -1
332 1 3.2436228340163797 2.6952823953985665 -0.6847405910660046 0 1 -1
273 1 2.942694091412822 1.1750582789291917 0.6312400537040508 0 1 0
315 1 3.093612074248078 2.542235558382767 0.4125451017281182 0 1 0
748 1 4.570482762476984 0.7252017221367507 -0.013493699180412034 1 0 1
525 1 4.028673906199367 1.9622986975446817 -0.7435257607172127 -1 0 1
837 1 4.725144977211911 1.276035434336519 8.58273505736041 0 1 0
587 1 5.766057070427088 1.8445386102397472 0.1916994013062696 1 0 0
431 1 3.8619112693911717 1.4416457874484874 0.3880039606704773 0 -1 0
685 1 7.944633520210138 0.7179979954038318 0.3187431771638379 -1 0 1
635 1 6.662598649363093 1.7118785310710365 0.5268616541271961 -1 1 0
624 1 7.495302558693063 2.414618702305119 0.7165237396993119 0 1 1
281 1 7.728603659903457 1.9927137978658789 8.724644520915538 -1 0 -1
672 1 5.081786738916749 2.2509039776518636 8.54905188042036 0 0 -1
324 1 7.51007514531116 1.6422735895353782 0.09792500129071766 -1 1 1
288 1 8.274706633439184 2.5847048634444825 -0.25554054781404095 0 0 0
802 1 -0.3196950543839487 1.0241199078309273 0.2698284836096699 0 0 1
826 1 0.20912497072125275 2.142741401310221 2.183750964493233 0 0 1
338 1 -0.23324465595747768 2.95093306723585 8.354731864927555 -1 -1 -1
70 1 -0.45249038340117265 3.0869133987547044 0.05044701798016959 1 1 -1
839 1 1.309369299062585 2.9932308184389953 -0.017860759441922062 0 0 1
815 1 -0.4467264089249486 3.4781010793675042 1.2227807305183664 1 0 1
453 1 8.353600478082114 3.5494806904726772 -0.7588627162800269 -1 1 0
414 1 2.4450118349067873 2.012623738307949 8.631098838426936 0 0 0
78 1 2.3554890869884164 2.825887699290132 -0.12424112425658874 0 0 0
476 1 0.504353199239212 3.6833903108415145 0.5822869905125659 0 0 1
673 1 2.825722799787209 3.4441134591877893 0.6553369275859381 0 0 1
176 1 2.1939164469558325 1.9027878837870535 0.31950060261220103 1 0 -1
443 1 3.8447044301916695 3.5666254993474578 0.20293999064890916 1 -1 0
355 1 3.1219537994080024 3.7504071643992174 -0.5476882915563979 0 1 1
609 1 4.120607711759175 2.868246710579819 8.24749461102106 1 0 0
690 1 4.789748705875063 3.8514503201003336 0.19006929066461156 0 0 0
296 1 5.214751531454421 3.0772050330126834 -0.41988582626909726 0 0 0
48 1 4.757797403025612 1.7364692996814761 -0.08320425018868242 0 0 -1
658 1 4.106112018343555 2.619351018300859 0.06558503470696761 0 0 0
703 1 6.247798342601802 2.786060471126136 -0.2897195676624484 0 -1 0
433 1 7.125021378053305 2.9493843234444452 -0.6808393745170117 0 0 0
89 1 5.9003539939715255 3.5773865810349625 0.197805620441225 0 0 -1
378 1 8.03286036243896 3.5269300773478505 0.19570307405379006 -1 0 1
388 1 7.579695907970352 4.472503956951705 -0.34183291909848734 0 -1 1
671 1 7.833093842440378 2.8011938910003655 8.227130165417172 0 -1 -1
511 1 8.698891463758308 2.1162937650172937 8.425723454021426 0 -1 0
564 1 7.127354263135971 5.617156293900993 0.21111134806222454 0 0 1
249 1 0.3862019801621659 4.511822548922746 -0.17312995340251058 1 -1 0
91 1 0.42924690043648434 5.495943827085856 0.47482755140419636 0 0 0
705 1 0.4739310558493019 5.1680581499377665 8.16533010003136 1 -1 0
299 1 -0.23586523921742794 5.246286904037664 -0.3623502801422224 0 0 0
348 1 0.9922492920623249 5.372501230528013 -0.4127657688637528 1 0 0
637 1 1.2262482340146104 3.997311119405648 -0.18703496843449224 1 0 0
207 1 1.0877457536304411 4.635448018115748 0.6787114386931682 0 0 0
328 1 3.204613610546868 5.852838055405228 8.64618576055776 0 0 -2
817 1 2.646483699657625 4.693096226558178 -0.7514948587917304 0 0 2
317 1 3.4327405897587275 4.518130539146676 8.268027195596463 0 0 -1
710 1 2.8908827834416835 5.33286842811047 -0.07063296550425682 0 1 0
61 1 2.860209980169432 4.395367926051073 0.34017754484102813 0 0 -1
58 1 3.6959731928505506 4.488761320324405 -0.1356057350081578 0 1 0
746 1 3.779107963277502 5.1971671197559655 0.5991674526879691 0 0 2
704 1 5.251649900503028 4.068292987842098 -0.6079527675409047 0 -1 0
471 1 4.574681413319503 4.753522741187319 -0.7696801882823268 -2 0 1
472 1 4.229362398574097 5.765013767829796 -0.35268458951939496 -1 0 0
492 1 5.3423498442057715 5.820024119825388 -0.0387428768078703 1 0 0
767 1 6.098898665778507 5.663033838258784 -0.5978265927636992 0 0 0
64 1 6.30634434811252 4.449395612142848 -0.4528080515176858 0 0 0
554 1 5.5419216978507055 4.907267637168066 8.477341618743628 0 0 0
806 1 -0.5185686052999235 4.146928397709381 0.3562380880110153 0 -1 0
82 1 8.44070158836132 4.579842138220131 8.704188175005182 0 0 -1
824 1 6.9493536237447175 4.329124049422156 8.350256081993983 -1 -1 0
793 1 7.383855217163469 5.622071082806576 7.853786041451749 -1 -1 0
161 1 7.017129778062381 5.233795917057681 -0.7071709844600252 -1 0 0
101 1 8.59646929412188 7.070876467334955 0.6808854562204919 -1 -1 1
319 1 -0.3023294888944408 6.263256876586052 0.5635422347965021 0 0 0
494 1 0.2893691871855426 7.051920795735049 0.4892955953755257 -1 0 -1
557 1 1.3503368732043546 6.865521498995523 0.40566024649220084 0 0 1
282 1 1.9702185931585987 5.807368179811964 -0.4301468978767185 0 0 1
100 1 0.6808907484801932 6.419478890657901 -0.08310269492076693 1 -1 0
842 1 1.3911354387506438 6.657699413155491 -0.6607097533856517 0 0 0
160 1 0.9066870690791096 7.50016495862674 -0.2025966560063094 0 0 0
648 1 2.9373410094741 7.0082190770148785 0.7968760986601894 0 0 1
204 1 1.933050366677327 6.533293762093558 1.1443479734255153 0 1 1
407 1 4.168829078194777 7.05139231991711 0.48336240001346054 0 -1 0
580 1 3.7375818689623284 6.013867305947467 1.269327854628932 0 1 -1
711 1 4.118740679151586 5.777459222532187 8.181092636991625 1 0 0
489 1 3.43768502014195 6.079090474494705 0.2983043882675832 0 0 0
128 1 4.7117485844408655 6.754055300979252 -0.34520393606001093 0 -1 -1
830 1 5.683983261911095 6.590312017424258 -0.48760311284331764 -1 -1 1
119 1 4.238769453600645 7.338067831984915 7.434696737192431 0 -1 -1
373 1 6.288600545024234 6.004123312907593 8.006192918927562 0 0 0
543 1 5.966919100087024 7.4982828945481685 7.6430836082332965 -1 0 -1
864 1 6.438784265655969 7.305877906444816 8.561897756639132 0 -1 0
565 1 6.789223287115712 6.39206382486938 -0.5723818261135704 0 0 0
115 1 8.487678304708004 7.214906932548135 -0.27884581445731005 -1 -1 1
351 1 7.785012869104298 6.489322889569244 0.11403435556047925 -1 0 0
265 1 7.747315536196977 6.317811582494594 8.548877222194337 -1 0 -1
632 1 7.149276491007108 7.186577551194024 -0.14903013417678795 0 1 -1
547 1 0.2538916725677353 7.80057231752431 1.1174728842940045 0 0 1
752 1 -0.24060748901538062 7.768651307391959 0.12398967954408195 0 -1 1
252 1 0.34993824608894447 8.517526435290135 -0.6565304093546842 1 0 1
400 1 2.082890653625365 7.320247273425351 0.011309339945947862 0 -1 1
97 1 2.6700305451546162 6.545247368626514 -0.44668480929268267 1 -1 0
8 1 2.427089832889722 7.46907470930232 8.58106741110331 1 -1 -1
146 1 3.5227036330037933 7.645577910274704 -0.1339364066293546 0 -1 0
654 1 2.194804061702819 7.4817817943280716 1.7824194644614622 0 -1 1
845 1 2.7096418715408546 8.006845129513879 0.2169120590559233 0 0 0
610 1 3.460010795083274 8.635300300557134 0.13302343169950578 0 0 1
203 1 3.1586344348257613 7.772162873278265 1.71679163517444 1 0 -1
713 1 4.4393564039059905 7.342059863452283 8.454956617101864 0 0 -1
387 1 5.248818218646984 6.819194033715499 0.38028741740415856 0 -1 0
585 1 4.548009181160037 8.005986231694447 -0.10136239567519076 0 0 0
173 1 5.96245952857411 8.361175765704429 0.9480084714732372 -1 0 0
36 1 6.568018333032239 8.374390670752259 0.17023004129203248 0 0 0
237 1 5.432839974755886 7.581784257725121 -0.3176469573380551 -1 -1 1
45 1 6.9281878064102695 -0.6579282362282904 1.0305896202354263 -1 1 0
141 1 -0.43459260402540556 8.689330461071187 0.7084904529512411 1 -1 0
785 1 7.597347792153897 7.6373993162509315 8.590712554010505 0 0 -1
688 1 7.848691505178879 7.736720212139356 0.5664583729775834 -1 -1 1
103 1 0.4587824866907838 -0.37224223327464345 1.0123089342410247 0 0 0
577 1 0.2677789177997969 0.5857885835372754 0.9790573172332553 0 0 1
732 1 -0.18432746100541605 0.2903789583791387 1.846546555247271 0 2 1
730 1 8.500338555806112 0.7133469434086064 1.491363832441915 0 0 1
270 1 1.2767922673706646 0.39111197185346935 1.511577551575687 1 1 1
561 1 1.0786197531139303 -0.3826056373656091 -0.24313318281804927 1 1 0
171 1 1.6926955857109949 1.7951123868925525 1.4722385986115456 0 1 0
451 1 2.1523840350882186 -0.21197071268176418 1.2821764696093123 -1 1 0
728 1 0.5909842631776073 -0.15061949648262524 2.0741415859227956 1 0 1
322 1 4.024442110266399 0.6063373025878138 0.8739963424162561 0 -1 0
1 1 3.0492725653641317 0.24283612959931838 1.2298693073440954 0 -1 0
459 1 5.227218259706373 0.4608716432193268 1.8083864461485855 0 0 0
611 1 2.5063490740828263 8.436928824702369 2.0096044384176857 1 -1 0
429 1 4.911020723284272 1.554334713984357 1.0819368442849873 0 0 1
359 1 4.5762901180209115 0.4107483564449341 2.6046241078704644 0 0 0
841 1 5.111041844664 -0.7172526308981553 1.803141128899213 0 0 1
339 1 5.281214494433689 1.1405191538176638 2.537044526500825 0 1 0
523 1 5.91826655371329 -0.09065594075901286 1.1954083174194803 -1 1 0
392 1 6.242939108142479 1.1437870031962396 1.2067277169500346 0 0 1
258 1 6.145941668872054 0.6630614159602184 2.174098018886952 0 0 0
323 1 6.423411973539787 -0.29422229752665613 2.3423233714946248 1 0 -1
123 1 7.76917282834369 0.8051282821035904 2.1997621376522276 0 0 0
727 1 8.501018554723617 -0.47205309598797407 1.4013908014146126 0 0 1
529 1 7.599401065866638 -0.40616741827122854 1.8138615230416526 -1 0 1
813 1 8.324198069689617 -0.01812657787262967 2.3029100165999012 -1 0 0
421 1 0.9069899703210738 1.3609105289405896 1.8831034158278357 0 0 1
804 1 1.047392572407457 2.5265859196729883 1.5843192427308237 1 0 1
72 1 1.0086624568693154 2.975915805423486 2.507630419755156 1 1 -1
191 1 2.593210659962308 0.8930943815393324 1.7458061684892743 0 1 0
196 1 1.524921368997026 2.1466727873843383 2.426386791656903 1 1 0
320 1 1.5176429947045997 3.7060594393343966 0.763175938770616 1 1 0
39 1 3.3682810525170037 3.035471796492487 1.3839172673834215 0 -1 -1
174 1 2.0396411855869045 2.7768644753917715 0.8840381931098595 1 1 0
573 1 2.977082649659199 2.043250872249055 1.2764877357669502 1 1 0
295 1 2.529256951590059 1.8403884625473552 2.536940595924705 0 0 0
681 1 5.13424606424279 2.49510046631639 0.49795318404975014 0 0 1
312 1 4.084218702422865 2.131149759565355 1.394049752989934 0 1 0
357 1 4.40290982920577 0.8887367540710143 1.7030700944493362 0 1 0
485 1 4.950357865334036 2.5221987384922873 1.4442609066161085 1 1 0
331 1 4.3405820761758465 2.9103210669830437 2.0082972656732836 0 -1 0
354 1 6.534198313188532 1.5659269657461603 2.0585457893690293 0 1 0
371 1 6.96364488270279 2.4742712828085383 1.905330641434175 0 0 0
795 1 5.826686917621708 2.054011814312185 1.3091543100659169 0 0 1
209 1 6.45367210688804 2.705680302056727 0.7458617709461691 0 -1 0
757 1 6.839245050236089 0.3896134422457363 1.5821926605444077 -1 1 1
666 1 8.529196296859288 1.7165619450288092 1.0081577493019576 -1 0 0
623 1 7.441509563031832 1.3376074337684103 1.1450543927922354 0 1 1
737 1 -0.35195475288430383 2.354447303029524 1.4778358495494999 1 0 0
167 1 8.575709784055382 2.970423444235393 2.1335304451737893 0 0 0
53 1 -0.7422205476920175 4.266944991189105 1.7579776146240886 1 0 0
683 1 0.24336319197215664 2.634230155575388 0.5194499526023018 1 -1 2
157 1 1.1420377413336018 3.5509614744892017 1.5817805641447034 -1 0 0
290 1 2.406241658529874 2.7571184834966225 1.8280351654510427 -1 -1 0
509 1 1.0245220293778616 3.9699107647515746 2.5214374092556553 1 0 -1
105 1 3.160351159563817 4.131604064216229 1.2807772955360457 0 0 0
7 1 2.0085384488606146 3.6443672144943995 1.911803439750575 0 0 -1
801 1 4.3666629728461075 3.270056707471262 1.0370822418227654 0 0 1
441 1 2.960942398331498 3.599325914846812 2.264324507798428 1 1 0
152 1 4.0931688684701975 4.2887366900610955 0.8856968633439728 1 1 -1
340 1 4.93326679526123 4.397021722876733 1.2651196021821007 0 1 0
38 1 7.0048600898147555 3.4693788230080433 0.2263638540502978 0 0 0
715 1 5.3296655178448775 3.5804273083093276 0.9244390785632015 0 0 0
682 1 5.989067659314064 3.025215018846059 1.6785789992086988 0 -1 0
435 1 7.5397854605481385 3.12945526790505 1.2653587496917624 0 0 0
579 1 5.122212518789224 3.617302914315338 2.0267436945276156 0 -1 1
566 1 8.406554356055969 2.821269281119967 0.8435638032274502 -1 0 0
287 1 8.072917279962706 4.0121540228383505 1.0017853623154958 -1 -1 0
428 1 7.8507627023465645 2.1355503574344006 1.6537402241795296 -1 0 0
455 1 7.847762824508105 3.684583036251231 2.0238933425653842 -1 -1 1
165 1 8.392054671965278 5.7190323666624225 0.665361172451093 0 0 0
51 1 -0.3850185637302914 5.1118523352419025 0.868416178502974 -1 0 -1
283 1 0.2072757895011697 4.333107495014761 1.2202297268672495 1 -1 0
680 1 0.0386374646173265 5.046029789900817 1.9871243104301635 1 -1 0
304 1 1.0091122604806122 4.982544927048432 2.7058446898531474 0 -1 0
380 1 1.0066540661314216 4.597879010585359 1.607564582396571 0 1 0
621 1 2.08359054731077 4.490723521077675 1.1580474328815862 0 0 1
651 1 1.3800988682621178 5.787280834363432 0.806586415123794 0 -1 0
516 1 1.8270729583668164 4.633079149226351 2.2323704171759067 0 -1 1
379 1 2.781387927429775 4.873553259255635 1.9639458307468525 -1 0 0
362 1 4.027714948951756 4.050093061926608 2.1564563606748224 -1 0 1
436 1 3.814321832273324 4.874221419991393 1.6554682097098012 1 0 1
466 1 3.4605255843418 5.8819410742652725 2.254256017270007 2 0 1
391 1 3.831901646088058 4.912622598298241 2.6073424421715283 0 -1 1
23 1 4.775151232581882 4.891061751424756 0.12446767583118167 0 -2 -1
92 1 4.558009169143821 5.723844072986159 1.7033656878992973 -1 0 -1
469 1 5.329082099802488 5.03941378010541 1.9386937859872881 -1 0 1
784 1 6.387729927549683 5.5809952731565 2.1010075440236156 0 0 -1
454 1 5.092307294106902 5.329462612286637 0.8856458387468987 0 1 0
797 1 5.567151078703585 4.537718262618748 0.36389351182151936 0 -2 0
335 1 6.047049596890313 4.785964805539217 1.412707455139123 -1 0 0
405 1 6.3711172734160835 3.750680505536993 1.1625485457080915 0 0 0
549 1 7.030819138150113 5.440067155852339 1.1742074372814935 -1 -1 -1
5 1 6.843956928285861 4.647241422555871 0.47553654601644585 1 0 -1
780 1 8.149169340425294 4.7686412024761236 0.5721091519201635 -1 1 1
467 1 7.213030925935877 4.434269247230477 1.360302151966986 0 0 1
200 1 7.854809864902853 4.820289492642763 2.2274380642643496 0 0 1
71 1 -0.7325539503981469 5.861415918302161 2.3313382243461245 2 0 0
293 1 0.7054114922772233 6.442750829679719 1.0915549586866815 0 0 0
639 1 -0.02891244817197551 5.918009873811559 1.4731949948610001 0 0 0
111 1 0.3558182573025386 5.945341766292267 2.512805394564377 0 -1 0
448 1 -0.08570693078532503 6.934126835413792 1.5208957551797742 0 0 0
311 1 1.0974461225499863 5.584840805428327 1.9070496987114471 0 -1 1
803 1 2.8549405813394046 6.365043169617295 1.5095566064167376 0 0 0
604 1 1.31474163747615 6.584097365715876 1.9221762854774493 0 -1 1
153 1 2.0918874189699324 5.526528065901345 1.5807459387542626 0 0 0
120 1 2.4546724524839645 5.995735686113392 0.5725175420260745 1 -1 -1
855 1 3.1683044614188205 6.833430959365296 2.498336506418314 0 0 1
307 1 2.796101214407255 5.198647379124122 0.914896502858311 0 -1 0
107 1 3.240750165111652 7.171127032719792 3.8122807362265223 0 0 0
366 1 4.272610400773897 6.479726089718053 2.2694522858575916 0 -1 -1
125 1 4.509692596932416 6.180509504282901 0.7787196429031702 0 -1 0
761 1 5.733606069510396 6.135644549542159 1.0912074287514126 0 0 1
862 1 5.299328908578673 6.1253753415787715 2.031818904272814 -1 0 0
278 1 3.9969255606735348 7.051350680040439 1.493277243484772 0 -1 -1
29 1 5.134209001667872 7.031530108239105 2.417690014803294 0 0 -1
755 1 6.746558545210857 6.488185108343261 0.6660507225737989 0 0 0
661 1 6.148393192289531 5.464915100374856 0.4939402131246422 -1 0 0
32 1 6.573151003972093 6.572658704929372 1.667122789846819 -2 0 0
850 1 6.934332015698335 7.663796449787667 1.1778454790100692 -1 0 1
349 1 8.584915699311749 6.400157337667148 1.4038384528718846 -2 1 1
517 1 7.799117719193259 8.155977135854728 1.5031672793410509 -1 0 0
221 1 7.678125495644365 6.348310467097504 1.1510937388091904 0 -2 -1
818 1 0.07072226668160164 7.710807923269499 2.4272720841656072 1 -1 0
792 1 1.2428344181450306 0.22325161497333204 0.5664347648903117 0 1 1
409 1 8.680187274374214 7.953479926045947 1.1303001544072588 0 0 0
133 1 0.9188345515683369 8.311392733407697 2.326264179253065 -1 1 -1
775 1 1.104513745935621 7.495444195267234 1.6733623881758535 1 0 1
446 1 1.9068970365728195 8.585548282948453 0.35743090249102366 -1 0 0
321 1 2.1780142170102397 6.7357787226613635 2.6090291659559743 0 -1 0
271 1 1.48864225942474 7.748392551446828 0.8008577649023835 0 -1 0
410 1 1.5318680064153587 8.501200476520552 1.5480474978864418 1 -1 0
722 1 3.198754346131557 8.722768301152534 1.2520298595689483 0 -1 1
646 1 3.536589257949811 8.558941822899953 2.2328456023559524 0 -1 0
555 1 4.25141626162009 -0.23139140826455765 1.8196716243885411 0 1 0
386 1 4.140955111548901 8.253426652892726 1.582004460181283 0 0 0
242 1 3.917448219528191 7.475344997234284 2.566802705869622 0 -1 0
602 1 4.966506387399331 6.947521292884391 1.439657959250896 0 -1 -1
502 1 5.121410525638753 7.8946960557258885 1.9270528302343808 1 0 0
765 1 6.122085161140549 7.389317093117948 0.3865873240754623 0 0 1
769 1 5.926189237915905 7.496374460661966 1.5088757276575064 0 0 0
747 1 7.061410088605914 8.388736493922677 2.2158479747932107 -1 0 0
256 1 4.878782335221748 7.806943926692464 0.932768520873994 0 -1 -1
326 1 6.92799142754803 0.5494982281526645 0.6186608984233222 -1 0 0
488 1 7.606673712866914 7.922437335244665 3.024917033671159 0 1 1
434 1 7.589768006617767 -0.6227113258667775 2.9538050752964424 -1 1 1
397 1 8.584664633636221 8.481186831231796 2.25787968577711 -1 -1 0
734 1 0.016463256568365517 8.588672115637529 1.662216336932231 1 -1 0
670 1 1.5562491902249576 -0.6039339472209352 2.859330594443367 0 0 1
147 1 -0.3671269832421402 1.3199537287627023 1.850629821152991 1 0 -1
527 1 0.33868924819744084 0.9077410547652437 2.5558589480342873 0 1 0
712 1 -0.26326017833166376 0.15016627286765624 2.815635190164689 1 1 2
169 1 2.0239895405512867 -0.05669605085598896 2.2885738935753874 1 1 0
213 1 1.79482192513098 1.1885336941963631 2.294760963128706 1 1 0
185 1 1.1995640631821745 0.43129882497769495 2.959288713973475 0 1 0
766 1 2.222960210993735 0.6633718185102482 4.205365471694538 1 1 1
586 1 2.669027576794061 0.6547547526839975 2.6489857232883853 1 -1 1
77 1 2.6512442286478173 -0.4379764985208644 2.9570232448228744 1 0 1
534 1 3.474342750024181 -0.29660054399835595 3.8504518330255526 0 0 -1
294 1 3.4238170146111933 0.11117953565202783 2.3629485659592344 1 1 0
16 1 3.5143634835136464 1.2219348239669023 1.545461472175213 0 0 0
701 1 4.057014815593832 -0.3204873848610958 2.903975332717325 0 0 1
508 1 6.461494439720605 8.424254805472176 2.9620299703268675 0 -1 -1
851 1 5.511977657439769 1.160913601389458 3.911420460831995 0 1 1
234 1 5.372841670995674 -0.11045595737340953 2.6042568576134286 -1 1 0
542 1 6.9841075266589465 0.3434372580654382 2.889773925785246 -1 1 1
500 1 6.000067274242635 8.308329404663596 1.9873305270250177 0 -1 1
106 1 7.490599894973858 7.856472923284904 4.050501226544763 0 -1 0
619 1 6.02878563575006 0.6991462400477294 3.141411258040187 -1 1 0
583 1 7.257270051351649 -0.1826149098960054 3.9014088015361836 1 0 1
590 1 8.32580160718965 0.13139077920596529 3.45770889318051 0 1 1
14 1 7.7509403679310465 0.9149129775920817 3.2009299668386135 0 0 -1
563 1 8.686442234961609 0.9780275213711408 2.601383564447174 0 1 0
300 1 8.055999661858568 8.675987848950966 4.17400650644529 0 -1 0
55 1 -0.12895041139830707 3.0557902673117523 2.698252472084966 0 0 0
52 1 -0.06297188755100497 1.6208909514080494 3.008329831941159 2 1 0
605 1 1.4969876100258936 0.1311454506085316 3.9589392422411924 1 1 0
805 1 0.3426332036879123 0.533028676671611 3.5294786951422736 0 0 0
438 1 0.48005645730960517 2.386275955236385 3.1926990439995384 1 1 0
794 1 0.9278643548137514 1.5013002930952188 3.048227175362726 -1 0 0
172 1 0.010919851045373517 1.593551502214297 3.9997958332506585 2 0 0
279 1 3.4187242243633365 2.362518859377927 2.193444725788116 -1 1 -1
150 1 3.688598187057426 1.3469231326062086 2.65268076351153 0 0 0
395 1 3.493507130397802 0.6448960082862528 3.3287492149403213 0 -1 0
707 1 4.560102086207319 1.957275266900724 2.231562861936046 0 0 0
745 1 5.003963259721671 2.1189048906581562 3.0332788245901723 -1 0 1
789 1 5.680660608121666 2.2956554708057255 2.294302431762618 -1 0 1
238 1 3.9803965760143325 2.1655676024531427 3.1319499388941994 -1 -1 0
759 1 6.881236407064058 1.3925737405873722 3.4311756455240934 -1 1 1
569 1 6.895148280989897 2.2801383385641296 2.988580951032482 0 0 0
699 1 8.627138110329621 2.0074802107707623 2.475931533993489 -1 0 1
309 1 7.55405904359343 1.75836429468643 2.43622115560343 -1 0 0
853 1 7.969321474963579 2.046673941684727 3.345327484089492 -1 0 0
144 1 -0.5052456666975291 0.9169410235792153 3.45486863346723 0 0 -1
445 1 0.2977582125994389 3.2468555600708155 1.8678201609923801 -1 1 1
341 1 8.626832014750379 3.8207251833451505 2.918879802285976 0 0 0
132 1 -0.21303041515667687 3.523689481832512 3.9087833993851397 1 0 -1
741 1 0.8353746106381462 3.3276595164366083 3.765960369222213 0 0 0
432 1 2.0129700835335176 3.896757994624908 2.9986868975524414 1 0 0
138 1 2.915093534635965 4.760025142647387 3.0620608654424983 0 0 0
778 1 2.2245255456761526 2.143861127702477 3.551073209736134 1 1 2
263 1 1.1878463692089394 4.411881457714253 3.529344629779688 1 1 0
116 1 2.9545064156894814 2.6203864828939647 3.2851142285036197 0 0 0
356 1 3.058768584989532 3.661949794303951 3.302003577446708 1 1 0
474 1 2.3134948499580767 2.8765892681962786 4.215300506792276 -1 1 0
406 1 2.0738223167069134 2.9648273031292818 2.6945280574050114 0 0 1
642 1 1.7412725492212655 3.6602266769280813 4.202455049467578 0 1 0
852 1 4.136012908793159 4.246879606714347 3.3520153183139185 0 0 1
618 1 4.77130104613401 5.429706855613003 2.702016226608314 0 1 1
625 1 4.0433678048206145 3.2359041646659916 3.149581942752733 1 1 1
385 1 5.119479671714212 3.19760273741538 2.863303319782276 0 0 0
104 1 4.930548635376479 3.8479556132172896 3.8414088467704524 1 0 -1
369 1 5.7207786756333245 2.7337545534606855 3.75686168701608 -1 0 1
607 1 6.110529840644226 3.0846089358896545 2.7321052122261587 0 0 0
50 1 5.994228359358848 4.157158550694669 2.2274947994291194 0 0 0
67 1 5.7002941518888095 4.068637707735698 3.299040114493662 -1 0 0
430 1 6.788250065431639 4.224758616803753 3.304550568503164 -1 0 0
628 1 7.666379264235236 2.739344418806272 2.523061542585795 0 0 0
246 1 8.212052531483538 3.037375441140729 3.3792344138656376 0 1 1
352 1 6.856738983905171 3.7263628776152915 2.310425947221165 0 0 -1
633 1 7.674757173088355 4.146489971787335 2.886048198610352 0 0 0
210 1 7.148069944843055 3.316058901634052 3.1570008916902603 0 1 0
11 1 0.8653818647122885 5.598949779684685 3.6748595281550127 1 -1 -1
763 1 0.03983222453661598 4.062913506450214 2.9703946454053765 0 1 0
212 1 0.04952414158910846 5.254149848650675 3.1288771623245157 2 0 -1
582 1 -0.11839316270281759 5.5468565390074875 4.174361130657261 1 0 1
225 1 0.7822191083124791 5.028039318473544 4.550360523629184 1 0 -1
709 1 1.8073780155193582 4.890546966361282 4.479126495233087 0 0 0
276 1 1.8527074793598275 5.202422354157083 3.3847001972606763 1 0 0
376 1 2.443163864708648 4.358720269313804 3.884321255347615 0 -1 0
544 1 3.654859871575845 5.010760691939688 4.032356937940876 0 0 0
777 1 4.91760249684591 4.892013167663761 3.5979890444241365 1 1 0
377 1 4.816723558921755 4.432181815636385 2.7092975693424712 -1 0 0
758 1 5.429836373745157 5.78664121824653 3.7645590514168914 -1 1 0
753 1 4.420651268228023 4.604649987944105 4.367038263026683 0 0 1
760 1 6.890280159805261 4.749656319172035 2.3213102609192102 0 0 0
773 1 5.851156204417755 4.965396891001467 2.942405391101523 -1 0 0
17 1 5.847903149972425 4.607093787843639 4.1586716744600665 1 0 0
675 1 6.921534994986512 5.364818674066584 3.1546414837309213 0 -1 0
148 1 8.103336249206196 5.427341540985217 3.107265223476284 -1 0 -1
298 1 -0.7632261934833415 4.813685950581381 2.6401544703313444 1 1 0
716 1 -0.7307499164672271 4.696782333216652 3.5972041226665956 0 0 0
368 1 8.28030517986926 3.973881444247262 4.083856704013954 -1 0 0
199 1 7.7721869188046 4.7205774519299295 3.6909195768240672 0 0 0
696 1 8.109842238116844 6.404241207010604 2.5408566796281624 0 0 0
538 1 1.3249438726886373 6.142714229729842 3.0001935568425124 1 0 0
262 1 0.8504294985346674 7.13428125019457 2.6520276475443656 1 0 1
450 1 -0.07420757286214233 7.30015475696005 3.3298556659291783 0 0 0
588 1 -0.18520343747922377 6.677780152340299 2.5551102767078193 1 0 0
80 1 8.701170433381455 7.737157969745381 3.0953216997195097 -1 -1 0
401 1 2.526554272723482 5.62765088207096 2.6321855905996614 0 -1 0
664 1 2.9157354442866366 6.298389865588613 3.3592963378556977 -1 0 1
493 1 1.1186228579843176 6.822167577800482 3.6654026723205466 0 0 0
719 1 1.5904396987407852 6.808178012531962 4.556807474283942 0 -1 0
524 1 1.91204887215562 6.022335250959654 3.875318330222393 0 0 0
556 1 2.670144139530598 5.3729362822144955 3.885643786977056 0 -1 0
3 1 2.583688362661827 6.436770590313657 4.460876385796835 0 -1 0
216 1 3.8850935972405383 5.744710479917811 3.0871122718004718 1 0 0
261 1 3.5024487606094192 5.97307477364868 4.2353136575714165 1 -1 0
402 1 4.019972657186076 6.6397782663862825 3.4554882414290162 -1 0 0
155 1 5.765038931159489 5.986757698488852 2.871973722605405 0 0 0
334 1 5.759357870303135 6.817332663581306 3.387636332344922 0 0 -1
799 1 4.908807998830739 6.239048226078627 3.116181877384904 0 -1 0
280 1 5.566268644108647 7.964245500961819 2.942044462141326 0 -1 -1
655 1 4.4894800689487715 5.702005318076543 4.099756043815177 0 -1 1
540 1 6.146902476481789 6.860699483191767 2.472988242314729 0 -1 0
129 1 7.037094999803412 6.398477523326216 2.8131550671388887 0 0 0
109 1 6.55590936497701 6.153302877095148 3.840498688462281 -1 0 -1
514 1 7.360840568556608 5.879215130361867 1.978943191710435 0 -1 0
233 1 8.41854543050693 5.310418668160999 1.5852813063519327 -1 0 0
192 1 8.51729881068336 7.418815824789795 2.1339044182562397 0 1 -1
175 1 7.548974561580218 5.892317310293302 3.716550790530405 -1 0 0
266 1 -0.03437174505510852 8.640655464062533 2.6689055381362947 0 -1 0
807 1 -0.42822340369107115 6.911295866636062 4.3506138942754635 1 -2 0
154 1 0.07128094596877345 8.37840679211098 4.068240322337073 1 -1 1
693 1 2.0900076210564027 8.331987295974312 3.5318654972848886 0 0 1
113 1 0.8346047104773123 7.8464367392522725 3.3314478778582908 0 0 0
652 1 1.7353823909005024 7.924660435559768 2.7018874698353574 0 -1 1
411 1 2.8332742460021207 7.821396440567269 2.8249659251468464 1 -1 0
662 1 4.718638325649787 8.400400460674817 2.6357157409322225 0 -2 1
857 1 3.8676958093116003 8.032943211660445 3.417453659542841 0 0 0
63 1 2.098217097646658 7.110449345139028 3.5539653907745903 0 1 0
73 1 3.1033852382699862 8.244332269141115 3.974269355704521 -1 0 -1
360 1 4.126173018116884 7.409173472074865 4.152050336205232 0 0 0
668 1 4.693586389137832 7.337553257516166 3.2149726372581267 -1 0 1
858 1 5.1077838367381805 7.666653230133198 4.057988123787379 0 0 0
425 1 5.099677575440143 6.5976356154082145 4.162241319775619 -1 -1 -1
764 1 6.293368301472276 8.237199502869395 4.120186577097027 0 0 1