-70 22.1950008
-60 15.7056965
-50 10.3044519
-40 5.97486838
-30 2.80742721
-20 0.660293742
-10 -0.403994737
0 -0.448869882
10 -0.406458718
20 0.676979467
30 2.78779664
40 5.98856193
50 10.3221619
60 15.7115498
70 22.097068
