0.0003
-7.0251
-12.5577
-16.7256
-19.6896
-21.6066
-22.6135
-22.8074
-22.4690
-21.6067
-19.6897
-16.7258
-12.5587
-7.0256
0.0000
