
                                 *****************
                                 * O   R   C   A *
                                 *****************

                                            #,                                       
                                            ###                                      
                                            ####                                     
                                            #####                                    
                                            ######                                   
                                           ########,                                 
                                     ,,################,,,,,                         
                               ,,#################################,,                 
                          ,,##########################################,,             
                       ,#########################################, ''#####,          
                    ,#############################################,,   '####,        
                  ,##################################################,,,,####,       
                ,###########''''           ''''###############################       
              ,#####''   ,,,,##########,,,,          '''####'''          '####       
            ,##' ,,,,###########################,,,                        '##       
           ' ,,###''''                  '''############,,,                           
         ,,##''                                '''############,,,,        ,,,,,,###''
      ,#''                                            '''#######################'''  
     '                                                          ''''####''''         
             ,#######,   #######,   ,#######,      ##                                
            ,#'     '#,  ##    ##  ,#'     '#,    #''#        ######   ,####,        
            ##       ##  ##   ,#'  ##            #'  '#       #        #'  '#        
            ##       ##  #######   ##           ,######,      #####,   #    #        
            '#,     ,#'  ##    ##  '#,     ,#' ,#      #,         ##   #,  ,#        
             '#######'   ##     ##  '#######'  #'      '#     #####' # '####'        



                  #######################################################
                  #                        -***-                        #
                  #          Department of theory and spectroscopy      #
                  #    Directorship and core code : Frank Neese         #
                  #        Max Planck Institute fuer Kohlenforschung    #
                  #                Kaiser Wilhelm Platz 1               #
                  #                 D-45470 Muelheim/Ruhr               #
                  #                      Germany                        #
                  #                                                     #
                  #                  All rights reserved                #
                  #                        -***-                        #
                  #######################################################


                         Program Version 5.0.4 -  RELEASE  -


 With contributions from (in alphabetic order):
   Daniel Aravena         : Magnetic Suceptibility
   Michael Atanasov       : Ab Initio Ligand Field Theory (pilot matlab implementation)
   Alexander A. Auer      : GIAO ZORA, VPT2 properties, NMR spectrum
   Ute Becker             : Parallelization
   Giovanni Bistoni       : ED, misc. LED, open-shell LED, HFLD
   Martin Brehm           : Molecular dynamics
   Dmytro Bykov           : SCF Hessian
   Vijay G. Chilkuri      : MRCI spin determinant printing, contributions to CSF-ICE
   Dipayan Datta          : RHF DLPNO-CCSD density
   Achintya Kumar Dutta   : EOM-CC, STEOM-CC
   Dmitry Ganyushin       : Spin-Orbit,Spin-Spin,Magnetic field MRCI
   Miquel Garcia          : C-PCM and meta-GGA Hessian, CC/C-PCM, Gaussian charge scheme
   Yang Guo               : DLPNO-NEVPT2, F12-NEVPT2, CIM, IAO-localization
   Andreas Hansen         : Spin unrestricted coupled pair/coupled cluster methods
   Benjamin Helmich-Paris : MC-RPA, TRAH-SCF, COSX integrals
   Lee Huntington         : MR-EOM, pCC
   Robert Izsak           : Overlap fitted RIJCOSX, COSX-SCS-MP3, EOM
   Marcus Kettner         : VPT2
   Christian Kollmar      : KDIIS, OOCD, Brueckner-CCSD(T), CCSD density, CASPT2, CASPT2-K
   Simone Kossmann        : Meta GGA functionals, TD-DFT gradient, OOMP2, MP2 Hessian
   Martin Krupicka        : Initial AUTO-CI
   Lucas Lang             : DCDCAS
   Marvin Lechner         : AUTO-CI (C++ implementation), FIC-MRCC
   Dagmar Lenk            : GEPOL surface, SMD
   Dimitrios Liakos       : Extrapolation schemes; Compound Job, initial MDCI parallelization
   Dimitrios Manganas     : Further ROCIS development; embedding schemes
   Dimitrios Pantazis     : SARC Basis sets
   Anastasios Papadopoulos: AUTO-CI, single reference methods and gradients
   Taras Petrenko         : DFT Hessian,TD-DFT gradient, ASA, ECA, R-Raman, ABS, FL, XAS/XES, NRVS
   Peter Pinski           : DLPNO-MP2, DLPNO-MP2 Gradient
   Christoph Reimann      : Effective Core Potentials
   Marius Retegan         : Local ZFS, SOC
   Christoph Riplinger    : Optimizer, TS searches, QM/MM, DLPNO-CCSD(T), (RO)-DLPNO pert. Triples
   Tobias Risthaus        : Range-separated hybrids, TD-DFT gradient, RPA, STAB
   Michael Roemelt        : Original ROCIS implementation
   Masaaki Saitow         : Open-shell DLPNO-CCSD energy and density
   Barbara Sandhoefer     : DKH picture change effects
   Avijit Sen             : IP-ROCIS
   Kantharuban Sivalingam : CASSCF convergence, NEVPT2, FIC-MRCI
   Bernardo de Souza      : ESD, SOC TD-DFT
   Georgi Stoychev        : AutoAux, RI-MP2 NMR, DLPNO-MP2 response
   Willem Van den Heuvel  : Paramagnetic NMR
   Boris Wezisla          : Elementary symmetry handling
   Frank Wennmohs         : Technical directorship


 We gratefully acknowledge several colleagues who have allowed us to
 interface, adapt or use parts of their codes:
   Stefan Grimme, W. Hujo, H. Kruse, P. Pracht,  : VdW corrections, initial TS optimization,
                  C. Bannwarth, S. Ehlert          DFT functionals, gCP, sTDA/sTD-DF
   Ed Valeev, F. Pavosevic, A. Kumar             : LibInt (2-el integral package), F12 methods
   Garnet Chan, S. Sharma, J. Yang, R. Olivares  : DMRG
   Ulf Ekstrom                                   : XCFun DFT Library
   Mihaly Kallay                                 : mrcc  (arbitrary order and MRCC methods)
   Jiri Pittner, Ondrej Demel                    : Mk-CCSD
   Frank Weinhold                                : gennbo (NPA and NBO analysis)
   Christopher J. Cramer and Donald G. Truhlar   : smd solvation model
   Lars Goerigk                                  : TD-DFT with DH, B97 family of functionals
   V. Asgeirsson, H. Jonsson                     : NEB implementation
   FAccTs GmbH                                   : IRC, NEB, NEB-TS, DLPNO-Multilevel, CI-OPT
                                                   MM, QMMM, 2- and 3-layer-ONIOM, Crystal-QMMM,
                                                   LR-CPCM, SF, NACMEs, symmetry and pop. for TD-DFT,
                                                   nearIR, NL-DFT gradient (VV10), updates on ESD,
                                                   ML-optimized integration grids
   S Lehtola, MJT Oliveira, MAL Marques          : LibXC Library
   Liviu Ungur et al                             : ANISO software


 Your calculation uses the libint2 library for the computation of 2-el integrals
 For citations please refer to: http://libint.valeyev.net

 Your ORCA version has been built with support for libXC version: 5.1.0
 For citations please refer to: https://tddft.org/programs/libxc/

 This ORCA versions uses:
   CBLAS   interface :  Fast vector & matrix operations
   LAPACKE interface :  Fast linear algebra routines
   SCALAPACK package :  Parallel linear algebra routines
   Shared memory     :  Shared parallel matrices
   BLAS/LAPACK       :  OpenBLAS 0.3.15  USE64BITINT DYNAMIC_ARCH NO_AFFINITY SkylakeX SINGLE_THREADED
        Core in use  :  SkylakeX
   Copyright (c) 2011-2014, The OpenBLAS Project


================================================================================

----- Orbital basis set information -----
Your calculation utilizes the basis: 6-31G(d)
   H-He, Li-Ne : W. J. Hehre, R. Ditchfield and J.A. Pople, J. Chem. Phys. 56, 2257 (1972).
                 Note: He and Ne are unpublished basis sets taken from the Gaussian program.
                 Note: Li and B from J. D. Dill and J. A. Pople, J. Chem. Phys. 62, 2921 (1975).
   Na - Ar     : M. M. Francl, W. J. Pietro, W. J. Hehre, J. S. Binkley, M. S. Gordon, 
                 D. J. DeFrees and J. A. Pople, J. Chem. Phys. 77, 3654 (1982).
   K - Zn      : V. A. Rassolov, J. A. Pople, M. A. Ratner, and T. L. Windus, J. Chem. Phys. 109, 1223 (1998).

================================================================================
                                        WARNINGS
                       Please study these warnings very carefully!
================================================================================

WARNING: Old DensityContainer found on disk!
         Will remove this file - 
         If you want to keep old densities, please start your calculation with a different basename. 


INFO   : the flag for use of the SHARK integral package has been found!

================================================================================
                                       INPUT FILE
================================================================================
NAME = scan_c2_h.in
|  1> ! HF 6-31g(d) PAL4
|  2> 
|  3> %paras  
|  4> B=2,10,81
|  5> end 
|  6> 
|  7> *int 0 1
|  8>  C      0   0   0     0.000000000000     0.00000000     0.00000000
|  9>  C      1   0   0     1.410408792387     0.00000000     0.00000000
| 10>  C      1   2   0     1.387629674561   121.46540976     0.00000000
| 11>  C      2   1   3     1.418429715822   117.86149259   357.95682680
| 12>  C      3   1   2     1.401216550379   120.41314464     1.85928728
| 13>  C      5   3   1     1.387728922094   119.18088952   358.56672225
| 14>  H      5   3   1     1.086448109445   120.54301814   179.88964476
| 15>  H      6   5   3     1.085257810950   120.27815199   180.37435074
| 16>  C      4   2   1     1.474525319058   120.29082617   177.88235003
| 17>  H      1   2   3     1.088916721971   118.52499331   181.18172947
| 18>  N      2   1   3     1.382927159506   119.21307977   183.26061362
| 19>  O      9   4   2     1.231295327431   126.25299933   356.29999903
| 20>  O      9   4   2     1.361745810407   113.26023456   176.60892359
| 21>  H     13   9   4     0.980186199946   104.58659711   179.32147663
| 22>  H      3   1   2     1.088000665320   119.35735619   180.54826763
| 23>  H     11   2   1     1.014297666448   115.28426224   195.45494424
| 24>  H     11   2   1     1.012437828384   115.27373933   333.44819984
| 25>  H      2   1   3     {B}               90.00000000    90.00000000
| 26>  O     18   2   1     0.957200000000   180.00000000    90.00000000 
| 27>  H     19   2   1     0.957200000000   104.52000000   180.00000000  
| 28> *
| 29> 
| 30>                          ****END OF INPUT****
================================================================================

                       ******************************
                       * Parameter Scan Calculation *
                       ******************************

Trajectory settings:
    -> SCF surface will be mapped

There are 1 parameter(s) to be scanned
             B: range=   2.00000000 ..  10.00000000  steps=   81
There will be   81 energy evaluations


         *************************************************************
                                TRAJECTORY STEP   1
                  B  :   2.00000000
         *************************************************************
---------------------------------
CARTESIAN COORDINATES (ANGSTROEM)
---------------------------------
  C      0.000000    0.000000    0.000000
  C      1.410409    0.000000    0.000000
  C     -0.724320    1.183586    0.000000
  C      2.073292    1.253208   -0.044708
  C     -0.064411    2.419058   -0.039207
  C      1.323048    2.445080   -0.047743
  H     -0.629466    3.347001   -0.041088
  H      1.852429    3.392160   -0.071804
  C      3.545723    1.317753    0.000066
  H     -0.520004   -0.956528    0.019731
  N      2.085359   -1.205080   -0.068653
  O      4.312423    0.364488    0.139874
  O      4.032585    2.583306   -0.125203
  H      5.005653    2.480252   -0.067898
  H     -1.811547    1.143588    0.009074
  H      3.068328   -1.165755    0.178380
  H      1.581522   -2.004078    0.295737
  H      1.410409    0.000000    2.000000
  O      1.410409    0.000000    2.957200
  H      2.337036   -0.000000    3.197187

----------------------------
CARTESIAN COORDINATES (A.U.)
----------------------------
  NO LB      ZA    FRAG     MASS         X           Y           Z
   0 C     6.0000    0    12.011    0.000000    0.000000    0.000000
   1 C     6.0000    0    12.011    2.665286    0.000000    0.000000
   2 C     6.0000    0    12.011   -1.368767    2.236654    0.000000
   3 C     6.0000    0    12.011    3.917954    2.368220   -0.084487
   4 C     6.0000    0    12.011   -0.121718    4.571357   -0.074090
   5 C     6.0000    0    12.011    2.500199    4.620531   -0.090221
   6 H     1.0000    0     1.008   -1.189519    6.324915   -0.077645
   7 H     1.0000    0     1.008    3.500584    6.410253   -0.135689
   8 C     6.0000    0    12.011    6.700446    2.490192    0.000125
   9 H     1.0000    0     1.008   -0.982664   -1.807577    0.037287
  10 N     7.0000    0    14.007    3.940757   -2.277270   -0.129736
  11 O     8.0000    0    15.999    8.149298    0.688782    0.264323
  12 O     8.0000    0    15.999    7.620482    4.881740   -0.236599
  13 H     1.0000    0     1.008    9.459313    4.686996   -0.128308
  14 H     1.0000    0     1.008   -3.423328    2.161068    0.017147
  15 H     1.0000    0     1.008    5.798299   -2.202959    0.337089
  16 H     1.0000    0     1.008    2.988644   -3.787158    0.558863
  17 H     1.0000    0     1.008    2.665286    0.000000    3.779452
  18 O     8.0000    0    15.999    2.665286    0.000000    5.588298
  19 H     1.0000    0     1.008    4.416358   -0.000000    6.041808

--------------------------------
INTERNAL COORDINATES (ANGSTROEM)
--------------------------------
 C      0   0   0     0.000000000000     0.00000000     0.00000000
 C      1   0   0     1.410408792387     0.00000000     0.00000000
 C      1   2   0     1.387629674561   121.46540976     0.00000000
 C      2   1   3     1.418429715822   117.86149259   357.95682680
 C      3   1   2     1.401216550379   120.41314464     1.85928728
 C      5   3   1     1.387728922094   119.18088952   358.56672225
 H      5   3   1     1.086448109445   120.54301814   179.88964476
 H      6   5   3     1.085257810950   120.27815199   180.37435074
 C      4   2   1     1.474525319058   120.29082617   177.88235003
 H      1   2   3     1.088916721971   118.52499331   181.18172947
 N      2   1   3     1.382927159506   119.21307977   183.26061362
 O      9   4   2     1.231295327431   126.25299933   356.29999903
 O      9   4   2     1.361745810407   113.26023456   176.60892359
 H     13   9   4     0.980186199946   104.58659711   179.32147663
 H      3   1   2     1.088000665320   119.35735619   180.54826763
 H     11   2   1     1.014297666448   115.28426224   195.45494424
 H     11   2   1     1.012437828384   115.27373933   333.44819984
 H      2   1   3     2.000000000000    90.00000000    90.00000000
 O     18   2   1     0.957200000000   180.00000000    90.00000000
 H     19   2   1     0.957200000000   104.52000000   180.00000000

---------------------------
INTERNAL COORDINATES (A.U.)
---------------------------
 C      0   0   0     0.000000000000     0.00000000     0.00000000
 C      1   0   0     2.665286354486     0.00000000     0.00000000
 C      1   2   0     2.622240060223   121.46540976     0.00000000
 C      2   1   3     2.680443703119   117.86149259   357.95682680
 C      3   1   2     2.647915534534   120.41314464     1.85928728
 C      5   3   1     2.622427610879   119.18088952   358.56672225
 H      5   3   1     2.053089385568   120.54301814   179.88964476
 H      6   5   3     2.050840047394   120.27815199   180.37435074
 C      4   2   1     2.786449030552   120.29082617   177.88235003
 H      1   2   3     2.057754387172   118.52499331   181.18172947
 N      2   1   3     2.613353594628   119.21307977   183.26061362
 O      9   4   2     2.326810958821   126.25299933   356.29999903
 O      9   4   2     2.573326645684   113.26023456   176.60892359
 H     13   9   4     1.852283478147   104.58659711   179.32147663
 H      3   1   2     2.056023290979   119.35735619   180.54826763
 H     11   2   1     1.916744807862   115.28426224   195.45494424
 H     11   2   1     1.913230223268   115.27373933   333.44819984
 H      2   1   3     3.779452267843    90.00000000    90.00000000
 O     18   2   1     1.808845855389   180.00000000    90.00000000
 H     19   2   1     1.808845855389   104.52000000   180.00000000

---------------------
BASIS SET INFORMATION
---------------------
There are 4 groups of distinct atoms

 Group   1 Type C   : 10s4p1d contracted to 3s2p1d pattern {631/31/1}
 Group   2 Type H   : 4s contracted to 2s pattern {31}
 Group   3 Type N   : 10s4p1d contracted to 3s2p1d pattern {631/31/1}
 Group   4 Type O   : 10s4p1d contracted to 3s2p1d pattern {631/31/1}

Atom   0C    basis set group =>   1
Atom   1C    basis set group =>   1
Atom   2C    basis set group =>   1
Atom   3C    basis set group =>   1
Atom   4C    basis set group =>   1
Atom   5C    basis set group =>   1
Atom   6H    basis set group =>   2
Atom   7H    basis set group =>   2
Atom   8C    basis set group =>   1
Atom   9H    basis set group =>   2
Atom  10N    basis set group =>   3
Atom  11O    basis set group =>   4
Atom  12O    basis set group =>   4
Atom  13H    basis set group =>   2
Atom  14H    basis set group =>   2
Atom  15H    basis set group =>   2
Atom  16H    basis set group =>   2
Atom  17H    basis set group =>   2
Atom  18O    basis set group =>   4
Atom  19H    basis set group =>   2

Checking for AutoStart:
The File: scan_c2_h.gbw exists
Trying to determine its content:
     ... Fine, the file contains calculation information
     ... Fine, the calculation information was read
     ... Fine, the file contains a basis set
     ... Fine, the basis set was read
     ... Fine, the file contains a geometry
     ... Fine, the geometry was read
     ... Fine, the file contains a set of orbitals
     ... Fine, the orbitals can be read
     => possible old guess file was deleted
     => GBW file was renamed to GES file
     => GES file is set as startup file
     => Guess is set to MORead
     ... now leaving AutoStart



           ************************************************************
           *        Program running with 4 parallel MPI-processes     *
           *              working on a common directory               *
           ************************************************************
------------------------------------------------------------------------------
                           ORCA GTO INTEGRAL CALCULATION
------------------------------------------------------------------------------
------------------------------------------------------------------------------
                   ___                                                        
                  /   \      - P O W E R E D   B Y -                         
                 /     \                                                     
                 |  |  |   _    _      __       _____    __    __             
                 |  |  |  | |  | |    /  \     |  _  \  |  |  /  |          
                  \  \/   | |  | |   /    \    | | | |  |  | /  /          
                 / \  \   | |__| |  /  /\  \   | |_| |  |  |/  /          
                |  |  |   |  __  | /  /__\  \  |    /   |      \           
                |  |  |   | |  | | |   __   |  |    \   |  |\   \          
                \     /   | |  | | |  |  |  |  | |\  \  |  | \   \       
                 \___/    |_|  |_| |__|  |__|  |_| \__\ |__|  \__/        
                                                                              
                      - O R C A' S   B I G   F R I E N D -                    
                                      &                                       
                       - I N T E G R A L  F E E D E R -                       
                                                                              
 v1 FN, 2020, v2 2021                                                         
------------------------------------------------------------------------------


Reading SHARK input file scan_c2_h.SHARKINP.tmp ... ok
----------------------
SHARK INTEGRAL PACKAGE
----------------------

Number of atoms                             ...     20
Number of basis functions                   ...    172
Number of shells                            ...     84
Maximum angular momentum                    ...      2
Integral batch strategy                     ... SHARK/LIBINT Hybrid
RI-J (if used) integral strategy            ... SPLIT-RIJ (Revised 2003 algorithm where possible)
Printlevel                                  ...      1
Contraction scheme used                     ... SEGMENTED contraction
Coulomb Range Separation                    ... NOT USED
Exchange Range Separation                   ... NOT USED
Finite Nucleus Model                        ... NOT USED
Auxiliary Coulomb fitting basis             ... NOT available
Auxiliary J/K fitting basis                 ... NOT available
Auxiliary Correlation fitting basis         ... NOT available
Auxiliary 'external' fitting basis          ... NOT available
Integral threshold                          ...     1.000000e-10
Primitive cut-off                           ...     1.000000e-11
Primitive pair pre-selection threshold      ...     1.000000e-11

Calculating pre-screening integrals         ... done (  0.0 sec) Dimension = 84
Organizing shell pair data                  ... done (  0.0 sec)
Shell pair information
Total number of shell pairs                 ...      3570
Shell pairs after pre-screening             ...      3237
Total number of primitive shell pairs       ...     20559
Primitive shell pairs kept                  ...     11470
          la=0 lb=0:   1149 shell pairs
          la=1 lb=0:   1052 shell pairs
          la=1 lb=1:    247 shell pairs
          la=2 lb=0:    492 shell pairs
          la=2 lb=1:    236 shell pairs
          la=2 lb=2:     61 shell pairs

Calculating one electron integrals          ... done (  0.0 sec)
Calculating Nuclear repulsion               ... done (  0.0 sec) ENN=    612.842393047134 Eh

SHARK setup successfully completed in   0.1 seconds

Maximum memory used throughout the entire GTOINT-calculation: 11.0 MB


           ************************************************************
           *        Program running with 4 parallel MPI-processes     *
           *              working on a common directory               *
           ************************************************************
-------------------------------------------------------------------------------
                                 ORCA SCF
-------------------------------------------------------------------------------

------------
SCF SETTINGS
------------
Hamiltonian:
 Ab initio Hamiltonian  Method          .... Hartree-Fock(GTOs)


General Settings:
 Integral files         IntName         .... scan_c2_h
 Hartree-Fock type      HFTyp           .... RHF
 Total Charge           Charge          ....    0
 Multiplicity           Mult            ....    1
 Number of Electrons    NEL             ....   82
 Basis Dimension        Dim             ....  172
 Nuclear Repulsion      ENuc            ....    612.8423930471 Eh

Convergence Acceleration:
 DIIS                   CNVDIIS         .... on
   Start iteration      DIISMaxIt       ....    12
   Startup error        DIISStart       ....  0.200000
   # of expansion vecs  DIISMaxEq       ....     5
   Bias factor          DIISBfac        ....   1.050
   Max. coefficient     DIISMaxC        ....  10.000
 Trust-Rad. Augm. Hess. CNVTRAH         .... auto
   Auto Start mean grad. ratio tolernc. ....  1.125000
   Auto Start start iteration           ....     1
   Auto Start num. interpolation iter.  ....    10
   Max. Number of Micro iterations      ....    16
   Max. Number of Macro iterations      .... Maxiter - #DIIS iter
   Number of Davidson start vectors     ....     2
   Converg. threshold I  (grad. norm)   ....   5.000e-05
   Converg. threshold II (energy diff.) ....   1.000e-06
   Grad. Scal. Fac. for Micro threshold ....   0.100
   Minimum threshold for Micro iter.    ....   0.010
   NR start threshold (gradient norm)   ....   0.001
   Initial trust radius                 ....   0.400
   Minimum AH scaling param. (alpha)    ....   1.000
   Maximum AH scaling param. (alpha)    .... 1000.000
   Orbital update algorithm             .... Taylor
   White noise on init. David. guess    .... on
   Maximum white noise                  ....   0.010
   Quad. conv. algorithm                .... NR
 SOSCF                  CNVSOSCF        .... on
   Start iteration      SOSCFMaxIt      ....   150
   Startup grad/error   SOSCFStart      ....  0.003300
 Level Shifting         CNVShift        .... on
   Level shift para.    LevelShift      ....    0.2500
   Turn off err/grad.   ShiftErr        ....    0.0010
 Zerner damping         CNVZerner       .... off
 Static damping         CNVDamp         .... on
   Fraction old density DampFac         ....    0.7000
   Max. Damping (<1)    DampMax         ....    0.9800
   Min. Damping (>=0)   DampMin         ....    0.0000
   Turn off err/grad.   DampErr         ....    0.1000
 Fernandez-Rico         CNVRico         .... off

SCF Procedure:
 Maximum # iterations   MaxIter         ....   125
 SCF integral mode      SCFMode         .... Direct
   Integral package                     .... SHARK and LIBINT hybrid scheme
 Reset frequency        DirectResetFreq ....    20
 Integral Threshold     Thresh          ....  1.000e-10 Eh
 Primitive CutOff       TCut            ....  1.000e-11 Eh

Convergence Tolerance:
 Convergence Check Mode ConvCheckMode   .... Total+1el-Energy
 Convergence forced     ConvForced      .... 0
 Energy Change          TolE            ....  1.000e-06 Eh
 1-El. energy change                    ....  1.000e-03 Eh
 Orbital Gradient       TolG            ....  5.000e-05
 Orbital Rotation angle TolX            ....  5.000e-05
 DIIS Error             TolErr          ....  1.000e-06


Diagonalization of the overlap matrix:
Smallest eigenvalue                        ... 4.166e-04
Time for diagonalization                   ...    0.007 sec
Threshold for overlap eigenvalues          ... 1.000e-08
Number of eigenvalues below threshold      ... 0
Time for construction of square roots      ...    0.004 sec
Total time needed                          ...    0.011 sec

---------------------
INITIAL GUESS: MOREAD
---------------------
Guess MOs are being read from file: scan_c2_h.ges
Input geometry compatible with but different from current geometry
Input basis set matches current basis set (good)
MOs were renormalized
MOs were reorthogonalized (Cholesky)
                      ------------------
                      INITIAL GUESS DONE (   0.0 sec)
                      ------------------
--------------
SCF ITERATIONS
--------------
ITER       Energy         Delta-E        Max-DP      RMS-DP      [F,P]     Damp
               ***  Starting incremental Fock matrix formation  ***
  0   -549.3464212028   0.000000000000 0.01901766  0.00057890  0.0280054 0.7000
                      *** Initiating the SOSCF procedure ***
                      *** Re-Reading the Fockian *** 
                      *** Removing any level shift *** 
ITER      Energy       Delta-E        Grad      Rot      Max-DP    RMS-DP
  1   -549.34789366  -0.0014724597  0.002461  0.002461  0.054937  0.001655
               *** Restarting incremental Fock matrix formation ***
  2   -549.35189732  -0.0040036555  0.002135  0.002309  0.008557  0.000301
  3   -549.35215253  -0.0002552112  0.001511  0.003550  0.004861  0.000148
  4   -549.35220032  -0.0000477915  0.000372  0.000609  0.001139  0.000039
  5   -549.35220551  -0.0000051921  0.000131  0.000466  0.000576  0.000020
  6   -549.35220660  -0.0000010867  0.000071  0.000299  0.000264  0.000007
                 **** Energy Check signals convergence ****
              ***Rediagonalizing the Fockian in SOSCF/NRSCF***

               *****************************************************
               *                     SUCCESS                       *
               *           SCF CONVERGED AFTER   7 CYCLES          *
               *****************************************************


----------------
TOTAL SCF ENERGY
----------------

Total Energy       :         -549.35220681 Eh          -14948.63352 eV

Components:
Nuclear Repulsion  :          612.84239305 Eh           16676.28932 eV
Electronic Energy  :        -1162.19459986 Eh          -31624.92284 eV
One Electron Energy:        -1966.89946934 Eh          -53522.05557 eV
Two Electron Energy:          804.70486948 Eh           21897.13273 eV

Virial components:
Potential Energy   :        -1098.02440027 Eh          -29878.76294 eV
Kinetic Energy     :          548.67219346 Eh           14930.12942 eV
Virial Ratio       :            2.00123938


---------------
SCF CONVERGENCE
---------------

  Last Energy change         ...   -2.1287e-07  Tolerance :   1.0000e-06
  Last MAX-Density change    ...    8.8715e-05  Tolerance :   1.0000e-05
  Last RMS-Density change    ...    4.0490e-06  Tolerance :   1.0000e-06
  Last Orbital Gradient      ...    2.3842e-05  Tolerance :   5.0000e-05
  Last Orbital Rotation      ...    1.1428e-04  Tolerance :   5.0000e-05

             **** THE GBW FILE WAS UPDATED (scan_c2_h.gbw) ****
             **** DENSITY scan_c2_h.scfp WAS UPDATED ****
             **** ENERGY FILE WAS UPDATED (scan_c2_h.en.tmp) ****
             **** THE GBW FILE WAS UPDATED (scan_c2_h.gbw) ****
             **** DENSITY scan_c2_h.scfp WAS UPDATED ****
----------------
ORBITAL ENERGIES
----------------

  NO   OCC          E(Eh)            E(eV) 
   0   2.0000     -20.622858      -561.1765 
   1   2.0000     -20.563328      -559.5566 
   2   2.0000     -20.536715      -558.8324 
   3   2.0000     -15.573163      -423.7673 
   4   2.0000     -11.406606      -310.3895 
   5   2.0000     -11.310614      -307.7775 
   6   2.0000     -11.262447      -306.4668 
   7   2.0000     -11.261118      -306.4306 
   8   2.0000     -11.254323      -306.2457 
   9   2.0000     -11.241205      -305.8887 
  10   2.0000     -11.236135      -305.7508 
  11   2.0000      -1.466071       -39.8938 
  12   2.0000      -1.359563       -36.9956 
  13   2.0000      -1.327389       -36.1201 
  14   2.0000      -1.241671       -33.7876 
  15   2.0000      -1.146468       -31.1970 
  16   2.0000      -1.051775       -28.6203 
  17   2.0000      -1.007651       -27.4196 
  18   2.0000      -0.899163       -24.4675 
  19   2.0000      -0.846147       -23.0248 
  20   2.0000      -0.806527       -21.9467 
  21   2.0000      -0.727117       -19.7859 
  22   2.0000      -0.710244       -19.3267 
  23   2.0000      -0.699589       -19.0368 
  24   2.0000      -0.699107       -19.0237 
  25   2.0000      -0.692423       -18.8418 
  26   2.0000      -0.641320       -17.4512 
  27   2.0000      -0.636624       -17.3234 
  28   2.0000      -0.617661       -16.8074 
  29   2.0000      -0.604290       -16.4436 
  30   2.0000      -0.584406       -15.9025 
  31   2.0000      -0.569405       -15.4943 
  32   2.0000      -0.541031       -14.7222 
  33   2.0000      -0.531204       -14.4548 
  34   2.0000      -0.515757       -14.0345 
  35   2.0000      -0.488683       -13.2977 
  36   2.0000      -0.483754       -13.1636 
  37   2.0000      -0.458934       -12.4882 
  38   2.0000      -0.454475       -12.3669 
  39   2.0000      -0.359270        -9.7762 
  40   2.0000      -0.308855        -8.4044 
  41   0.0000       0.082393         2.2420 
  42   0.0000       0.138369         3.7652 
  43   0.0000       0.217927         5.9301 
  44   0.0000       0.223025         6.0688 
  45   0.0000       0.230823         6.2810 
  46   0.0000       0.238427         6.4879 
  47   0.0000       0.256626         6.9831 
  48   0.0000       0.291752         7.9390 
  49   0.0000       0.316479         8.6118 
  50   0.0000       0.330200         8.9852 
  51   0.0000       0.342298         9.3144 
  52   0.0000       0.361165         9.8278 
  53   0.0000       0.394476        10.7342 
  54   0.0000       0.425366        11.5748 
  55   0.0000       0.430192        11.7061 
  56   0.0000       0.442527        12.0418 
  57   0.0000       0.484391        13.1810 
  58   0.0000       0.505898        13.7662 
  59   0.0000       0.534077        14.5330 
  60   0.0000       0.565430        15.3861 
  61   0.0000       0.587715        15.9926 
  62   0.0000       0.694289        18.8926 
  63   0.0000       0.719219        19.5709 
  64   0.0000       0.744049        20.2466 
  65   0.0000       0.747772        20.3479 
  66   0.0000       0.763108        20.7652 
  67   0.0000       0.778313        21.1790 
  68   0.0000       0.790881        21.5210 
  69   0.0000       0.811903        22.0930 
  70   0.0000       0.824150        22.4263 
  71   0.0000       0.828047        22.5323 
  72   0.0000       0.838493        22.8166 
  73   0.0000       0.852635        23.2014 
  74   0.0000       0.878184        23.8966 
  75   0.0000       0.912102        24.8196 
  76   0.0000       0.921586        25.0776 
  77   0.0000       0.937964        25.5233 
  78   0.0000       0.968702        26.3597 
  79   0.0000       0.983347        26.7582 
  80   0.0000       0.996521        27.1167 
  81   0.0000       1.051480        28.6122 
  82   0.0000       1.069901        29.1135 
  83   0.0000       1.082553        29.4578 
  84   0.0000       1.091034        29.6885 
  85   0.0000       1.102078        29.9891 
  86   0.0000       1.107414        30.1343 
  87   0.0000       1.127605        30.6837 
  88   0.0000       1.156337        31.4655 
  89   0.0000       1.166869        31.7521 
  90   0.0000       1.176920        32.0256 
  91   0.0000       1.191395        32.4195 
  92   0.0000       1.202677        32.7265 
  93   0.0000       1.207230        32.8504 
  94   0.0000       1.221853        33.2483 
  95   0.0000       1.231638        33.5146 
  96   0.0000       1.251213        34.0472 
  97   0.0000       1.272806        34.6348 
  98   0.0000       1.295637        35.2561 
  99   0.0000       1.309802        35.6415 
 100   0.0000       1.316251        35.8170 
 101   0.0000       1.358600        36.9694 
 102   0.0000       1.360147        37.0115 
 103   0.0000       1.391803        37.8729 
 104   0.0000       1.421359        38.6771 
 105   0.0000       1.434509        39.0350 
 106   0.0000       1.469387        39.9841 
 107   0.0000       1.494190        40.6590 
 108   0.0000       1.533696        41.7340 
 109   0.0000       1.568200        42.6729 
 110   0.0000       1.579086        42.9691 
 111   0.0000       1.593631        43.3649 
 112   0.0000       1.631092        44.3843 
 113   0.0000       1.661552        45.2131 
 114   0.0000       1.697998        46.2049 
 115   0.0000       1.705277        46.4030 
 116   0.0000       1.723301        46.8934 
 117   0.0000       1.754188        47.7339 
 118   0.0000       1.765590        48.0441 
 119   0.0000       1.856976        50.5309 
 120   0.0000       1.908064        51.9211 
 121   0.0000       1.964901        53.4677 
 122   0.0000       1.971987        53.6605 
 123   0.0000       2.004972        54.5581 
 124   0.0000       2.021854        55.0175 
 125   0.0000       2.052519        55.8519 
 126   0.0000       2.057514        55.9878 
 127   0.0000       2.060251        56.0623 
 128   0.0000       2.076971        56.5173 
 129   0.0000       2.091836        56.9218 
 130   0.0000       2.126737        57.8714 
 131   0.0000       2.141528        58.2739 
 132   0.0000       2.160276        58.7841 
 133   0.0000       2.181731        59.3679 
 134   0.0000       2.214407        60.2571 
 135   0.0000       2.230900        60.7059 
 136   0.0000       2.242969        61.0343 
 137   0.0000       2.285712        62.1974 
 138   0.0000       2.292969        62.3949 
 139   0.0000       2.324992        63.2662 
 140   0.0000       2.354381        64.0660 
 141   0.0000       2.409907        65.5769 
 142   0.0000       2.432984        66.2049 
 143   0.0000       2.442762        66.4709 
 144   0.0000       2.504491        68.1507 
 145   0.0000       2.520652        68.5904 
 146   0.0000       2.558716        69.6262 
 147   0.0000       2.577044        70.1249 
 148   0.0000       2.600891        70.7738 
 149   0.0000       2.633813        71.6697 
 150   0.0000       2.712628        73.8144 
 151   0.0000       2.717620        73.9502 
 152   0.0000       2.752564        74.9011 
 153   0.0000       2.757535        75.0363 
 154   0.0000       2.803831        76.2961 
 155   0.0000       2.833338        77.0990 
 156   0.0000       2.910405        79.1962 
 157   0.0000       2.937612        79.9365 
 158   0.0000       2.953745        80.3755 
 159   0.0000       2.955790        80.4311 
 160   0.0000       3.018517        82.1380 
 161   0.0000       3.040637        82.7399 
 162   0.0000       3.053016        83.0768 
 163   0.0000       3.096233        84.2528 
 164   0.0000       3.131576        85.2145 
 165   0.0000       3.186491        86.7088 
 166   0.0000       3.235044        88.0300 
 167   0.0000       3.272335        89.0448 
 168   0.0000       3.351907        91.2100 
 169   0.0000       3.441187        93.6394 
 170   0.0000       3.589576        97.6773 
 171   0.0000       3.800396       103.4140 

                    ********************************
                    * MULLIKEN POPULATION ANALYSIS *
                    ********************************

-----------------------
MULLIKEN ATOMIC CHARGES
-----------------------
   0 C :   -0.250490
   1 C :    0.233096
   2 C :   -0.139571
   3 C :   -0.208191
   4 C :   -0.249616
   5 C :   -0.134585
   6 H :    0.212653
   7 H :    0.257360
   8 C :    0.885683
   9 H :    0.211464
  10 N :   -0.930032
  11 O :   -0.649466
  12 O :   -0.767992
  13 H :    0.483468
  14 H :    0.223501
  15 H :    0.441562
  16 H :    0.378538
  17 H :    0.509754
  18 O :   -0.944191
  19 H :    0.437054
Sum of atomic charges:   -0.0000000

--------------------------------
MULLIKEN REDUCED ORBITAL CHARGES
--------------------------------
  0 C s       :     3.152694  s :     3.152694
      pz      :     1.097938  p :     3.054742
      px      :     0.892239
      py      :     1.064565
      dz2     :     0.004518  d :     0.043053
      dxz     :     0.004396
      dyz     :     0.003742
      dx2y2   :     0.015812
      dxy     :     0.014586
  1 C s       :     3.111390  s :     3.111390
      pz      :     0.844671  p :     2.581143
      px      :     0.927299
      py      :     0.809172
      dz2     :     0.005703  d :     0.074371
      dxz     :     0.010563
      dyz     :     0.015958
      dx2y2   :     0.020546
      dxy     :     0.021602
  2 C s       :     3.177702  s :     3.177702
      pz      :     0.882126  p :     2.913185
      px      :     1.098396
      py      :     0.932663
      dz2     :     0.004770  d :     0.048684
      dxz     :     0.003083
      dyz     :     0.009219
      dx2y2   :     0.018042
      dxy     :     0.013570
  3 C s       :     3.133944  s :     3.133944
      pz      :     1.195016  p :     3.029992
      px      :     0.902758
      py      :     0.932219
      dz2     :     0.004239  d :     0.044255
      dxz     :     0.002556
      dyz     :     0.006123
      dx2y2   :     0.018099
      dxy     :     0.013238
  4 C s       :     3.166879  s :     3.166879
      pz      :     1.070432  p :     3.038160
      px      :     0.945925
      py      :     1.021802
      dz2     :     0.004577  d :     0.044577
      dxz     :     0.004939
      dyz     :     0.003486
      dx2y2   :     0.014754
      dxy     :     0.016822
  5 C s       :     3.163814  s :     3.163814
      pz      :     0.878236  p :     2.922609
      px      :     0.969967
      py      :     1.074407
      dz2     :     0.004767  d :     0.048162
      dxz     :     0.008263
      dyz     :     0.004274
      dx2y2   :     0.013467
      dxy     :     0.017391
  6 H s       :     0.787347  s :     0.787347
  7 H s       :     0.742640  s :     0.742640
  8 C s       :     2.890762  s :     2.890762
      pz      :     0.633306  p :     2.082898
      px      :     0.860120
      py      :     0.589472
      dz2     :     0.008724  d :     0.140657
      dxz     :     0.015065
      dyz     :     0.025825
      dx2y2   :     0.054548
      dxy     :     0.036495
  9 H s       :     0.788536  s :     0.788536
 10 N s       :     3.673624  s :     3.673624
      pz      :     1.767870  p :     4.219554
      px      :     1.287530
      py      :     1.164155
      dz2     :     0.002652  d :     0.036854
      dxz     :     0.005979
      dyz     :     0.006641
      dx2y2   :     0.010995
      dxy     :     0.010586
 11 O s       :     3.892011  s :     3.892011
      pz      :     1.531422  p :     4.726760
      px      :     1.653807
      py      :     1.541531
      dz2     :     0.002961  d :     0.030695
      dxz     :     0.004982
      dyz     :     0.006843
      dx2y2   :     0.006200
      dxy     :     0.009709
 12 O s       :     3.901393  s :     3.901393
      pz      :     1.864600  p :     4.834319
      px      :     1.432450
      py      :     1.537269
      dz2     :     0.005024  d :     0.032279
      dxz     :     0.000510
      dyz     :     0.004859
      dx2y2   :     0.016546
      dxy     :     0.005341
 13 H s       :     0.516532  s :     0.516532
 14 H s       :     0.776499  s :     0.776499
 15 H s       :     0.558438  s :     0.558438
 16 H s       :     0.621462  s :     0.621462
 17 H s       :     0.490246  s :     0.490246
 18 O s       :     3.907114  s :     3.907114
      pz      :     1.489141  p :     5.006693
      px      :     1.522503
      py      :     1.995049
      dz2     :     0.016269  d :     0.030384
      dxz     :     0.001656
      dyz     :     0.000894
      dx2y2   :     0.010142
      dxy     :     0.001422
 19 H s       :     0.562946  s :     0.562946


                     *******************************
                     * LOEWDIN POPULATION ANALYSIS *
                     *******************************

----------------------
LOEWDIN ATOMIC CHARGES
----------------------
   0 C :   -0.191840
   1 C :    0.079019
   2 C :   -0.066075
   3 C :   -0.152955
   4 C :   -0.186654
   5 C :   -0.062275
   6 H :    0.142783
   7 H :    0.162257
   8 C :    0.276878
   9 H :    0.142371
  10 N :   -0.444425
  11 O :   -0.357985
  12 O :   -0.369345
  13 H :    0.358995
  14 H :    0.148545
  15 H :    0.280823
  16 H :    0.260023
  17 H :    0.318529
  18 O :   -0.661182
  19 H :    0.322512

-------------------------------
LOEWDIN REDUCED ORBITAL CHARGES
-------------------------------
  0 C s       :     2.906850  s :     2.906850
      pz      :     1.081665  p :     3.196840
      px      :     1.034368
      py      :     1.080807
      dz2     :     0.007174  d :     0.088150
      dxz     :     0.008449
      dyz     :     0.005674
      dx2y2   :     0.034857
      dxy     :     0.031995
  1 C s       :     2.854939  s :     2.854939
      pz      :     0.850131  p :     2.909402
      px      :     1.056458
      py      :     1.002813
      dz2     :     0.009909  d :     0.156640
      dxz     :     0.020526
      dyz     :     0.032131
      dx2y2   :     0.046330
      dxy     :     0.047745
  2 C s       :     2.918046  s :     2.918046
      pz      :     0.884169  p :     3.051277
      px      :     1.090421
      py      :     1.076688
      dz2     :     0.007144  d :     0.096752
      dxz     :     0.004287
      dyz     :     0.018396
      dx2y2   :     0.037397
      dxy     :     0.029528
  3 C s       :     2.863987  s :     2.863987
      pz      :     1.141899  p :     3.189350
      px      :     0.999399
      py      :     1.048052
      dz2     :     0.007709  d :     0.099618
      dxz     :     0.004918
      dyz     :     0.011943
      dx2y2   :     0.042637
      dxy     :     0.032412
  4 C s       :     2.906742  s :     2.906742
      pz      :     1.055012  p :     3.188875
      px      :     1.063294
      py      :     1.070569
      dz2     :     0.007177  d :     0.091037
      dxz     :     0.009104
      dyz     :     0.005689
      dx2y2   :     0.032580
      dxy     :     0.036486
  5 C s       :     2.914577  s :     2.914577
      pz      :     0.887298  p :     3.051392
      px      :     1.080168
      py      :     1.083926
      dz2     :     0.007110  d :     0.096306
      dxz     :     0.015736
      dyz     :     0.007917
      dx2y2   :     0.029222
      dxy     :     0.036321
  6 H s       :     0.857217  s :     0.857217
  7 H s       :     0.837743  s :     0.837743
  8 C s       :     2.837251  s :     2.837251
      pz      :     0.673913  p :     2.584569
      px      :     1.014452
      py      :     0.896204
      dz2     :     0.019043  d :     0.301302
      dxz     :     0.028601
      dyz     :     0.051812
      dx2y2   :     0.121740
      dxy     :     0.080106
  9 H s       :     0.857629  s :     0.857629
 10 N s       :     3.195491  s :     3.195491
      pz      :     1.737413  p :     4.184845
      px      :     1.250767
      py      :     1.196665
      dz2     :     0.003598  d :     0.064090
      dxz     :     0.007503
      dyz     :     0.010332
      dx2y2   :     0.021645
      dxy     :     0.021011
 11 O s       :     3.561523  s :     3.561523
      pz      :     1.504020  p :     4.743831
      px      :     1.664986
      py      :     1.574826
      dz2     :     0.006576  d :     0.052630
      dxz     :     0.005548
      dyz     :     0.007940
      dx2y2   :     0.011351
      dxy     :     0.021215
 12 O s       :     3.536104  s :     3.536104
      pz      :     1.834183  p :     4.782313
      px      :     1.397951
      py      :     1.550179
      dz2     :     0.007332  d :     0.050929
      dxz     :     0.001068
      dyz     :     0.006069
      dx2y2   :     0.025778
      dxy     :     0.010682
 13 H s       :     0.641005  s :     0.641005
 14 H s       :     0.851455  s :     0.851455
 15 H s       :     0.719177  s :     0.719177
 16 H s       :     0.739977  s :     0.739977
 17 H s       :     0.681471  s :     0.681471
 18 O s       :     3.617194  s :     3.617194
      pz      :     1.481556  p :     5.006920
      px      :     1.529633
      py      :     1.995731
      dz2     :     0.020334  d :     0.037067
      dxz     :     0.002432
      dyz     :     0.000915
      dx2y2   :     0.011962
      dxy     :     0.001424
 19 H s       :     0.677488  s :     0.677488


                      *****************************
                      * MAYER POPULATION ANALYSIS *
                      *****************************

  NA   - Mulliken gross atomic population
  ZA   - Total nuclear charge
  QA   - Mulliken gross atomic charge
  VA   - Mayer's total valence
  BVA  - Mayer's bonded valence
  FA   - Mayer's free valence

  ATOM       NA         ZA         QA         VA         BVA        FA
  0 C      6.2505     6.0000    -0.2505     3.8578     3.8578     0.0000
  1 C      5.7669     6.0000     0.2331     3.8409     3.8409    -0.0000
  2 C      6.1396     6.0000    -0.1396     3.8961     3.8961    -0.0000
  3 C      6.2082     6.0000    -0.2082     3.8426     3.8426    -0.0000
  4 C      6.2496     6.0000    -0.2496     3.8785     3.8785    -0.0000
  5 C      6.1346     6.0000    -0.1346     3.8626     3.8626     0.0000
  6 H      0.7873     1.0000     0.2127     0.9255     0.9255     0.0000
  7 H      0.7426     1.0000     0.2574     0.9083     0.9083     0.0000
  8 C      5.1143     6.0000     0.8857     3.7366     3.7366    -0.0000
  9 H      0.7885     1.0000     0.2115     0.9252     0.9252     0.0000
 10 N      7.9300     7.0000    -0.9300     2.6549     2.6549     0.0000
 11 O      8.6495     8.0000    -0.6495     1.8337     1.8337    -0.0000
 12 O      8.7680     8.0000    -0.7680     1.7136     1.7136    -0.0000
 13 H      0.5165     1.0000     0.4835     0.7533     0.7533    -0.0000
 14 H      0.7765     1.0000     0.2235     0.9192     0.9192    -0.0000
 15 H      0.5584     1.0000     0.4416     0.7963     0.7963    -0.0000
 16 H      0.6215     1.0000     0.3785     0.8276     0.8276     0.0000
 17 H      0.4902     1.0000     0.5098     0.7034     0.7034    -0.0000
 18 O      8.9442     8.0000    -0.9442     1.4874     1.4874     0.0000
 19 H      0.5629     1.0000     0.4371     0.7788     0.7788     0.0000

  Mayer bond orders larger than 0.100000
B(  0-C ,  1-C ) :   1.3492 B(  0-C ,  2-C ) :   1.4974 B(  0-C ,  9-H ) :   0.9343 
B(  1-C ,  3-C ) :   1.3498 B(  1-C , 10-N ) :   1.0315 B(  2-C ,  4-C ) :   1.3841 
B(  2-C , 14-H ) :   0.9339 B(  3-C ,  5-C ) :   1.3649 B(  3-C ,  8-C ) :   1.0600 
B(  4-C ,  5-C ) :   1.4927 B(  4-C ,  6-H ) :   0.9380 B(  5-C ,  7-H ) :   0.9128 
B(  8-C , 11-O ) :   1.6987 B(  8-C , 12-O ) :   0.9650 B( 10-N , 15-H ) :   0.7482 
B( 10-N , 16-H ) :   0.8240 B( 12-O , 13-H ) :   0.7237 B( 17-H , 18-O ) :   0.6822 
B( 18-O , 19-H ) :   0.7805 

-------
TIMINGS
-------

Total SCF time: 0 days 0 hours 0 min 8 sec 

Total time                  ....       8.751 sec
Sum of individual times     ....       8.536 sec  ( 97.5%)

Fock matrix formation       ....       8.480 sec  ( 96.9%)
Diagonalization             ....       0.009 sec  (  0.1%)
Density matrix formation    ....       0.002 sec  (  0.0%)
Population analysis         ....       0.014 sec  (  0.2%)
Initial guess               ....       0.006 sec  (  0.1%)
Orbital Transformation      ....       0.000 sec  (  0.0%)
Orbital Orthonormalization  ....       0.003 sec  (  0.0%)
DIIS solution               ....       0.004 sec  (  0.0%)
SOSCF solution              ....       0.022 sec  (  0.3%)

Maximum memory used throughout the entire SCF-calculation: 228.9 MB

-------------------------   --------------------
FINAL SINGLE POINT ENERGY      -549.352206812411
-------------------------   --------------------

Storing actual gbw-file in scan_c2_h.001.gbw ... done

                            ***************************************
                            *     ORCA property calculations      *
                            ***************************************

                                    ---------------------
                                    Active property flags
                                    ---------------------
   (+) Dipole Moment


------------------------------------------------------------------------------
                       ORCA ELECTRIC PROPERTIES CALCULATION
------------------------------------------------------------------------------

Dipole Moment Calculation                       ... on
Quadrupole Moment Calculation                   ... off
Polarizability Calculation                      ... off
GBWName                                         ... scan_c2_h.gbw
Electron density                                ... scan_c2_h.scfp
The origin for moment calculation is the CENTER OF MASS  = ( 3.514193,  1.706235  0.615909)

-------------
DIPOLE MOMENT
-------------
                                X             Y             Z
Electronic contribution:      4.08455       2.01744      -2.77790
Nuclear contribution   :     -4.10467      -1.78073       2.45344
                        -----------------------------------------
Total Dipole Moment    :     -0.02012       0.23671      -0.32446
                        -----------------------------------------
Magnitude (a.u.)       :      0.40214
Magnitude (Debye)      :      1.02215



--------------------
Rotational spectrum 
--------------------
 
Rotational constants in cm-1:     0.045222     0.031276     0.024728 
Rotational constants in MHz :  1355.712535   937.632067   741.327517 

 Dipole components along the rotational axes: 
x,y,z [a.u.] :     0.037789     0.343614    -0.205463 
x,y,z [Debye]:     0.096052     0.873397    -0.522245 

 

         *************************************************************
                                TRAJECTORY STEP   2
                  B  :   2.10000000
         *************************************************************
---------------------------------
CARTESIAN COORDINATES (ANGSTROEM)
---------------------------------
  C      0.000000    0.000000    0.000000
  C      1.410409    0.000000    0.000000
  C     -0.724320    1.183586    0.000000
  C      2.073292    1.253208   -0.044708
  C     -0.064411    2.419058   -0.039207
  C      1.323048    2.445080   -0.047743
  H     -0.629466    3.347001   -0.041088
  H      1.852429    3.392160   -0.071804
  C      3.545723    1.317753    0.000066
  H     -0.520004   -0.956528    0.019731
  N      2.085359   -1.205080   -0.068653
  O      4.312423    0.364488    0.139874
  O      4.032585    2.583306   -0.125203
  H      5.005653    2.480252   -0.067898
  H     -1.811547    1.143588    0.009074
  H      3.068328   -1.165755    0.178380
  H      1.581522   -2.004078    0.295737
  H      1.410409    0.000000    2.100000
  O      1.410409    0.000000    3.057200
  H      2.337036   -0.000000    3.297187

----------------------------
CARTESIAN COORDINATES (A.U.)
----------------------------
  NO LB      ZA    FRAG     MASS         X           Y           Z
   0 C     6.0000    0    12.011    0.000000    0.000000    0.000000
   1 C     6.0000    0    12.011    2.665286    0.000000    0.000000
   2 C     6.0000    0    12.011   -1.368767    2.236654    0.000000
   3 C     6.0000    0    12.011    3.917954    2.368220   -0.084487
   4 C     6.0000    0    12.011   -0.121718    4.571357   -0.074090
   5 C     6.0000    0    12.011    2.500199    4.620531   -0.090221
   6 H     1.0000    0     1.008   -1.189519    6.324915   -0.077645
   7 H     1.0000    0     1.008    3.500584    6.410253   -0.135689
   8 C     6.0000    0    12.011    6.700446    2.490192    0.000125
   9 H     1.0000    0     1.008   -0.982664   -1.807577    0.037287
  10 N     7.0000    0    14.007    3.940757   -2.277270   -0.129736
  11 O     8.0000    0    15.999    8.149298    0.688782    0.264323
  12 O     8.0000    0    15.999    7.620482    4.881740   -0.236599
  13 H     1.0000    0     1.008    9.459313    4.686996   -0.128308
  14 H     1.0000    0     1.008   -3.423328    2.161068    0.017147
  15 H     1.0000    0     1.008    5.798299   -2.202959    0.337089
  16 H     1.0000    0     1.008    2.988644   -3.787158    0.558863
  17 H     1.0000    0     1.008    2.665286    0.000000    3.968425
  18 O     8.0000    0    15.999    2.665286    0.000000    5.777271
  19 H     1.0000    0     1.008    4.416358   -0.000000    6.230781

--------------------------------
INTERNAL COORDINATES (ANGSTROEM)
--------------------------------
 C      0   0   0     0.000000000000     0.00000000     0.00000000
 C      1   0   0     1.410408792387     0.00000000     0.00000000
 C      1   2   0     1.387629674561   121.46540976     0.00000000
 C      2   1   3     1.418429715822   117.86149259   357.95682680
 C      3   1   2     1.401216550379   120.41314464     1.85928728
 C      5   3   1     1.387728922094   119.18088952   358.56672225
 H      5   3   1     1.086448109445   120.54301814   179.88964476
 H      6   5   3     1.085257810950   120.27815199   180.37435074
 C      4   2   1     1.474525319058   120.29082617   177.88235003
 H      1   2   3     1.088916721971   118.52499331   181.18172947
 N      2   1   3     1.382927159506   119.21307977   183.26061362
 O      9   4   2     1.231295327431   126.25299933   356.29999903
 O      9   4   2     1.361745810407   113.26023456   176.60892359
 H     13   9   4     0.980186199946   104.58659711   179.32147663
 H      3   1   2     1.088000665320   119.35735619   180.54826763
 H     11   2   1     1.014297666448   115.28426224   195.45494424
 H     11   2   1     1.012437828384   115.27373933   333.44819984
 H      2   1   3     2.100000000000    90.00000000    90.00000000
 O     18   2   1     0.957200000000   180.00000000    90.00000000
 H     19   2   1     0.957200000000   104.52000000   180.00000000

---------------------------
INTERNAL COORDINATES (A.U.)
---------------------------
 C      0   0   0     0.000000000000     0.00000000     0.00000000
 C      1   0   0     2.665286354486     0.00000000     0.00000000
 C      1   2   0     2.622240060223   121.46540976     0.00000000
 C      2   1   3     2.680443703119   117.86149259   357.95682680
 C      3   1   2     2.647915534534   120.41314464     1.85928728
 C      5   3   1     2.622427610879   119.18088952   358.56672225
 H      5   3   1     2.053089385568   120.54301814   179.88964476
 H      6   5   3     2.050840047394   120.27815199   180.37435074
 C      4   2   1     2.786449030552   120.29082617   177.88235003
 H      1   2   3     2.057754387172   118.52499331   181.18172947
 N      2   1   3     2.613353594628   119.21307977   183.26061362
 O      9   4   2     2.326810958821   126.25299933   356.29999903
 O      9   4   2     2.573326645684   113.26023456   176.60892359
 H     13   9   4     1.852283478147   104.58659711   179.32147663
 H      3   1   2     2.056023290979   119.35735619   180.54826763
 H     11   2   1     1.916744807862   115.28426224   195.45494424
 H     11   2   1     1.913230223268   115.27373933   333.44819984
 H      2   1   3     3.968424881235    90.00000000    90.00000000
 O     18   2   1     1.808845855389   180.00000000    90.00000000
 H     19   2   1     1.808845855389   104.52000000   180.00000000



           ************************************************************
           *        Program running with 4 parallel MPI-processes     *
           *              working on a common directory               *
           ************************************************************
------------------------------------------------------------------------------
                   ___                                                        
                  /   \      - P O W E R E D   B Y -                         
                 /     \                                                     
                 |  |  |   _    _      __       _____    __    __             
                 |  |  |  | |  | |    /  \     |  _  \  |  |  /  |          
                  \  \/   | |  | |   /    \    | | | |  |  | /  /          
                 / \  \   | |__| |  /  /\  \   | |_| |  |  |/  /          
                |  |  |   |  __  | /  /__\  \  |    /   |      \           
                |  |  |   | |  | | |   __   |  |    \   |  |\   \          
                \     /   | |  | | |  |  |  |  | |\  \  |  | \   \       
                 \___/    |_|  |_| |__|  |__|  |_| \__\ |__|  \__/        
                                                                              
                      - O R C A' S   B I G   F R I E N D -                    
                                      &                                       
                       - I N T E G R A L  F E E D E R -                       
                                                                              
 v1 FN, 2020, v2 2021                                                         
------------------------------------------------------------------------------


Reading SHARK input file scan_c2_h.SHARKINP.tmp ... ok
----------------------
SHARK INTEGRAL PACKAGE
----------------------

Number of atoms                             ...     20
Number of basis functions                   ...    172
Number of shells                            ...     84
Maximum angular momentum                    ...      2
Integral batch strategy                     ... SHARK/LIBINT Hybrid
RI-J (if used) integral strategy            ... SPLIT-RIJ (Revised 2003 algorithm where possible)
Printlevel                                  ...      1
Contraction scheme used                     ... SEGMENTED contraction
Coulomb Range Separation                    ... NOT USED
Exchange Range Separation                   ... NOT USED
Finite Nucleus Model                        ... NOT USED
Auxiliary Coulomb fitting basis             ... NOT available
Auxiliary J/K fitting basis                 ... NOT available
Auxiliary Correlation fitting basis         ... NOT available
Auxiliary 'external' fitting basis          ... NOT available
Integral threshold                          ...     1.000000e-10
Primitive cut-off                           ...     1.000000e-11
Primitive pair pre-selection threshold      ...     1.000000e-11

Calculating pre-screening integrals         ... done (  0.0 sec) Dimension = 84
Organizing shell pair data                  ... done (  0.0 sec)
Shell pair information
Total number of shell pairs                 ...      3570
Shell pairs after pre-screening             ...      3229
Total number of primitive shell pairs       ...     20559
Primitive shell pairs kept                  ...     11405
          la=0 lb=0:   1145 shell pairs
          la=1 lb=0:   1052 shell pairs
          la=1 lb=1:    247 shell pairs
          la=2 lb=0:    488 shell pairs
          la=2 lb=1:    236 shell pairs
          la=2 lb=2:     61 shell pairs

Calculating one electron integrals          ... done (  0.0 sec)
Calculating Nuclear repulsion               ... done (  0.0 sec) ENN=    610.515131769862 Eh

SHARK setup successfully completed in   0.1 seconds

Maximum memory used throughout the entire GTOINT-calculation: 11.0 MB


           ************************************************************
           *        Program running with 4 parallel MPI-processes     *
           *              working on a common directory               *
           ************************************************************

Diagonalization of the overlap matrix:
Smallest eigenvalue                        ... 4.192e-04
Time for diagonalization                   ...    0.012 sec
Threshold for overlap eigenvalues          ... 1.000e-08
Number of eigenvalues below threshold      ... 0
Time for construction of square roots      ...    0.054 sec
Total time needed                          ...    0.067 sec

--------------
SCF ITERATIONS
--------------
ITER       Energy         Delta-E        Max-DP      RMS-DP      [F,P]     Damp
               ***  Starting incremental Fock matrix formation  ***
                      *** Initiating the SOSCF procedure ***
                      *** Re-Reading the Fockian *** 
                      *** Removing any level shift *** 
ITER      Energy       Delta-E        Grad      Rot      Max-DP    RMS-DP
  0   -549.35467440 -549.3546744018  0.001939  0.001939  0.009408  0.000232
               *** Restarting incremental Fock matrix formation ***
  1   -549.35480337  -0.0001289698  0.000464  0.000632  0.003039  0.000067
  2   -549.35481650  -0.0000131264  0.000176  0.000512  0.001163  0.000026
  3   -549.35481762  -0.0000011209  0.000081  0.000138  0.000155  0.000006
                 **** Energy Check signals convergence ****
              ***Rediagonalizing the Fockian in SOSCF/NRSCF***

               *****************************************************
               *                     SUCCESS                       *
               *           SCF CONVERGED AFTER   4 CYCLES          *
               *****************************************************

Total Energy       :         -549.35481783 Eh          -14948.70457 eV
  Last Energy change         ...   -2.1044e-07  Tolerance :   1.0000e-06
  Last MAX-Density change    ...    1.0800e-04  Tolerance :   1.0000e-05
             **** THE GBW FILE WAS UPDATED (scan_c2_h.gbw) ****
             **** DENSITY scan_c2_h.scfp WAS UPDATED ****
             **** ENERGY FILE WAS UPDATED (scan_c2_h.en.tmp) ****
             **** THE GBW FILE WAS UPDATED (scan_c2_h.gbw) ****
             **** DENSITY scan_c2_h.scfp WAS UPDATED ****
Total SCF time: 0 days 0 hours 0 min 6 sec 

Maximum memory used throughout the entire SCF-calculation: 228.9 MB

-------------------------   --------------------
FINAL SINGLE POINT ENERGY      -549.354817829354
-------------------------   --------------------

Storing actual gbw-file in scan_c2_h.002.gbw ... done

                            ***************************************
                            *     ORCA property calculations      *
                            ***************************************

                                    ---------------------
                                    Active property flags
                                    ---------------------
   (+) Dipole Moment


------------------------------------------------------------------------------
                       ORCA ELECTRIC PROPERTIES CALCULATION
------------------------------------------------------------------------------

Dipole Moment Calculation                       ... on
Quadrupole Moment Calculation                   ... off
Polarizability Calculation                      ... off
GBWName                                         ... scan_c2_h.gbw
Electron density                                ... scan_c2_h.scfp
The origin for moment calculation is the CENTER OF MASS  = ( 3.514193,  1.706235  0.637851)

-------------
DIPOLE MOMENT
-------------
                                X             Y             Z
Electronic contribution:      4.09403       2.00797      -2.86271
Nuclear contribution   :     -4.10467      -1.78073       2.54393
                        -----------------------------------------
Total Dipole Moment    :     -0.01064       0.22724      -0.31878
                        -----------------------------------------
Magnitude (a.u.)       :      0.39163
Magnitude (Debye)      :      0.99544



--------------------
Rotational spectrum 
--------------------
 
Rotational constants in cm-1:     0.044127     0.030881     0.024625 
Rotational constants in MHz :  1322.884292   925.795058   738.243337 

 Dipole components along the rotational axes: 
x,y,z [a.u.] :     0.048191     0.337402    -0.192900 
x,y,z [Debye]:     0.122493     0.857609    -0.490313 

 

         *************************************************************
                                TRAJECTORY STEP   3
                  B  :   2.20000000
         *************************************************************
---------------------------------
CARTESIAN COORDINATES (ANGSTROEM)
---------------------------------
  C      0.000000    0.000000    0.000000
  C      1.410409    0.000000    0.000000
  C     -0.724320    1.183586    0.000000
  C      2.073292    1.253208   -0.044708
  C     -0.064411    2.419058   -0.039207
  C      1.323048    2.445080   -0.047743
  H     -0.629466    3.347001   -0.041088
  H      1.852429    3.392160   -0.071804
  C      3.545723    1.317753    0.000066
  H     -0.520004   -0.956528    0.019731
  N      2.085359   -1.205080   -0.068653
  O      4.312423    0.364488    0.139874
  O      4.032585    2.583306   -0.125203
  H      5.005653    2.480252   -0.067898
  H     -1.811547    1.143588    0.009074
  H      3.068328   -1.165755    0.178380
  H      1.581522   -2.004078    0.295737
  H      1.410409    0.000000    2.200000
  O      1.410409    0.000000    3.157200
  H      2.337036   -0.000000    3.397187

----------------------------
CARTESIAN COORDINATES (A.U.)
----------------------------
  NO LB      ZA    FRAG     MASS         X           Y           Z
   0 C     6.0000    0    12.011    0.000000    0.000000    0.000000
   1 C     6.0000    0    12.011    2.665286    0.000000    0.000000
   2 C     6.0000    0    12.011   -1.368767    2.236654    0.000000
   3 C     6.0000    0    12.011    3.917954    2.368220   -0.084487
   4 C     6.0000    0    12.011   -0.121718    4.571357   -0.074090
   5 C     6.0000    0    12.011    2.500199    4.620531   -0.090221
   6 H     1.0000    0     1.008   -1.189519    6.324915   -0.077645
   7 H     1.0000    0     1.008    3.500584    6.410253   -0.135689
   8 C     6.0000    0    12.011    6.700446    2.490192    0.000125
   9 H     1.0000    0     1.008   -0.982664   -1.807577    0.037287
  10 N     7.0000    0    14.007    3.940757   -2.277270   -0.129736
  11 O     8.0000    0    15.999    8.149298    0.688782    0.264323
  12 O     8.0000    0    15.999    7.620482    4.881740   -0.236599
  13 H     1.0000    0     1.008    9.459313    4.686996   -0.128308
  14 H     1.0000    0     1.008   -3.423328    2.161068    0.017147
  15 H     1.0000    0     1.008    5.798299   -2.202959    0.337089
  16 H     1.0000    0     1.008    2.988644   -3.787158    0.558863
  17 H     1.0000    0     1.008    2.665286    0.000000    4.157397
  18 O     8.0000    0    15.999    2.665286    0.000000    5.966243
  19 H     1.0000    0     1.008    4.416358   -0.000000    6.419753

--------------------------------
INTERNAL COORDINATES (ANGSTROEM)
--------------------------------
 C      0   0   0     0.000000000000     0.00000000     0.00000000
 C      1   0   0     1.410408792387     0.00000000     0.00000000
 C      1   2   0     1.387629674561   121.46540976     0.00000000
 C      2   1   3     1.418429715822   117.86149259   357.95682680
 C      3   1   2     1.401216550379   120.41314464     1.85928728
 C      5   3   1     1.387728922094   119.18088952   358.56672225
 H      5   3   1     1.086448109445   120.54301814   179.88964476
 H      6   5   3     1.085257810950   120.27815199   180.37435074
 C      4   2   1     1.474525319058   120.29082617   177.88235003
 H      1   2   3     1.088916721971   118.52499331   181.18172947
 N      2   1   3     1.382927159506   119.21307977   183.26061362
 O      9   4   2     1.231295327431   126.25299933   356.29999903
 O      9   4   2     1.361745810407   113.26023456   176.60892359
 H     13   9   4     0.980186199946   104.58659711   179.32147663
 H      3   1   2     1.088000665320   119.35735619   180.54826763
 H     11   2   1     1.014297666448   115.28426224   195.45494424
 H     11   2   1     1.012437828384   115.27373933   333.44819984
 H      2   1   3     2.200000000000    90.00000000    90.00000000
 O     18   2   1     0.957200000000   180.00000000    90.00000000
 H     19   2   1     0.957200000000   104.52000000   180.00000000

---------------------------
INTERNAL COORDINATES (A.U.)
---------------------------
 C      0   0   0     0.000000000000     0.00000000     0.00000000
 C      1   0   0     2.665286354486     0.00000000     0.00000000
 C      1   2   0     2.622240060223   121.46540976     0.00000000
 C      2   1   3     2.680443703119   117.86149259   357.95682680
 C      3   1   2     2.647915534534   120.41314464     1.85928728
 C      5   3   1     2.622427610879   119.18088952   358.56672225
 H      5   3   1     2.053089385568   120.54301814   179.88964476
 H      6   5   3     2.050840047394   120.27815199   180.37435074
 C      4   2   1     2.786449030552   120.29082617   177.88235003
 H      1   2   3     2.057754387172   118.52499331   181.18172947
 N      2   1   3     2.613353594628   119.21307977   183.26061362
 O      9   4   2     2.326810958821   126.25299933   356.29999903
 O      9   4   2     2.573326645684   113.26023456   176.60892359
 H     13   9   4     1.852283478147   104.58659711   179.32147663
 H      3   1   2     2.056023290979   119.35735619   180.54826763
 H     11   2   1     1.916744807862   115.28426224   195.45494424
 H     11   2   1     1.913230223268   115.27373933   333.44819984
 H      2   1   3     4.157397494627    90.00000000    90.00000000
 O     18   2   1     1.808845855389   180.00000000    90.00000000
 H     19   2   1     1.808845855389   104.52000000   180.00000000



           ************************************************************
           *        Program running with 4 parallel MPI-processes     *
           *              working on a common directory               *
           ************************************************************
------------------------------------------------------------------------------
                   ___                                                        
                  /   \      - P O W E R E D   B Y -                         
                 /     \                                                     
                 |  |  |   _    _      __       _____    __    __             
                 |  |  |  | |  | |    /  \     |  _  \  |  |  /  |          
                  \  \/   | |  | |   /    \    | | | |  |  | /  /          
                 / \  \   | |__| |  /  /\  \   | |_| |  |  |/  /          
                |  |  |   |  __  | /  /__\  \  |    /   |      \           
                |  |  |   | |  | | |   __   |  |    \   |  |\   \          
                \     /   | |  | | |  |  |  |  | |\  \  |  | \   \       
                 \___/    |_|  |_| |__|  |__|  |_| \__\ |__|  \__/        
                                                                              
                      - O R C A' S   B I G   F R I E N D -                    
                                      &                                       
                       - I N T E G R A L  F E E D E R -                       
                                                                              
 v1 FN, 2020, v2 2021                                                         
------------------------------------------------------------------------------


Reading SHARK input file scan_c2_h.SHARKINP.tmp ... ok
----------------------
SHARK INTEGRAL PACKAGE
----------------------

Number of atoms                             ...     20
Number of basis functions                   ...    172
Number of shells                            ...     84
Maximum angular momentum                    ...      2
Integral batch strategy                     ... SHARK/LIBINT Hybrid
RI-J (if used) integral strategy            ... SPLIT-RIJ (Revised 2003 algorithm where possible)
Printlevel                                  ...      1
Contraction scheme used                     ... SEGMENTED contraction
Coulomb Range Separation                    ... NOT USED
Exchange Range Separation                   ... NOT USED
Finite Nucleus Model                        ... NOT USED
Auxiliary Coulomb fitting basis             ... NOT available
Auxiliary J/K fitting basis                 ... NOT available
Auxiliary Correlation fitting basis         ... NOT available
Auxiliary 'external' fitting basis          ... NOT available
Integral threshold                          ...     1.000000e-10
Primitive cut-off                           ...     1.000000e-11
Primitive pair pre-selection threshold      ...     1.000000e-11

Calculating pre-screening integrals         ... done (  0.0 sec) Dimension = 84
Organizing shell pair data                  ... done (  0.0 sec)
Shell pair information
Total number of shell pairs                 ...      3570
Shell pairs after pre-screening             ...      3224
Total number of primitive shell pairs       ...     20559
Primitive shell pairs kept                  ...     11370
          la=0 lb=0:   1145 shell pairs
          la=1 lb=0:   1050 shell pairs
          la=1 lb=1:    247 shell pairs
          la=2 lb=0:    485 shell pairs
          la=2 lb=1:    236 shell pairs
          la=2 lb=2:     61 shell pairs

Calculating one electron integrals          ... done (  0.0 sec)
Calculating Nuclear repulsion               ... done (  0.0 sec) ENN=    608.276697887941 Eh

SHARK setup successfully completed in   0.1 seconds

Maximum memory used throughout the entire GTOINT-calculation: 11.0 MB


           ************************************************************
           *        Program running with 4 parallel MPI-processes     *
           *              working on a common directory               *
           ************************************************************

Diagonalization of the overlap matrix:
Smallest eigenvalue                        ... 4.213e-04
Time for diagonalization                   ...    0.003 sec
Threshold for overlap eigenvalues          ... 1.000e-08
Number of eigenvalues below threshold      ... 0
Time for construction of square roots      ...    0.001 sec
Total time needed                          ...    0.004 sec

--------------
SCF ITERATIONS
--------------
ITER       Energy         Delta-E        Max-DP      RMS-DP      [F,P]     Damp
               ***  Starting incremental Fock matrix formation  ***
                      *** Initiating the SOSCF procedure ***
                      *** Re-Reading the Fockian *** 
                      *** Removing any level shift *** 
ITER      Energy       Delta-E        Grad      Rot      Max-DP    RMS-DP
  0   -549.35652810 -549.3565280964  0.001416  0.001416  0.007812  0.000211
               *** Restarting incremental Fock matrix formation ***
  1   -549.35662361  -0.0000955150  0.000411  0.000552  0.002358  0.000060
  2   -549.35663310  -0.0000094898  0.000157  0.000455  0.000870  0.000021
  3   -549.35663392  -0.0000008144  0.000073  0.000126  0.000135  0.000005
                 **** Energy Check signals convergence ****
              ***Rediagonalizing the Fockian in SOSCF/NRSCF***

               *****************************************************
               *                     SUCCESS                       *
               *           SCF CONVERGED AFTER   4 CYCLES          *
               *****************************************************

Total Energy       :         -549.35663407 Eh          -14948.75399 eV
  Last Energy change         ...   -1.5504e-07  Tolerance :   1.0000e-06
  Last MAX-Density change    ...    9.1407e-05  Tolerance :   1.0000e-05
             **** THE GBW FILE WAS UPDATED (scan_c2_h.gbw) ****
             **** DENSITY scan_c2_h.scfp WAS UPDATED ****
             **** ENERGY FILE WAS UPDATED (scan_c2_h.en.tmp) ****
             **** THE GBW FILE WAS UPDATED (scan_c2_h.gbw) ****
             **** DENSITY scan_c2_h.scfp WAS UPDATED ****
Total SCF time: 0 days 0 hours 0 min 5 sec 

Maximum memory used throughout the entire SCF-calculation: 228.9 MB

-------------------------   --------------------
FINAL SINGLE POINT ENERGY      -549.356634070729
-------------------------   --------------------

Storing actual gbw-file in scan_c2_h.003.gbw ... done

                            ***************************************
                            *     ORCA property calculations      *
                            ***************************************

                                    ---------------------
                                    Active property flags
[...]

-------------
DIPOLE MOMENT
-------------
                                X             Y             Z
Electronic contribution:      4.22468       1.87612      -9.77688
Nuclear contribution   :     -4.10467      -1.78073       9.60259
                        -----------------------------------------
Total Dipole Moment    :      0.12001       0.09540      -0.17429
                        -----------------------------------------
Magnitude (a.u.)       :      0.23212
Magnitude (Debye)      :      0.59001



--------------------
Rotational spectrum 
--------------------
 
Rotational constants in cm-1:     0.026585     0.007984     0.007296 
Rotational constants in MHz :   796.990612   239.342757   218.734717 

 Dipole components along the rotational axes: 
x,y,z [a.u.] :    -0.189709    -0.113997    -0.069980 
x,y,z [Debye]:    -0.482201    -0.289757    -0.177875 

 

         *************************************************************
                                TRAJECTORY STEP  81
                  B  :  10.00000000
         *************************************************************
---------------------------------
CARTESIAN COORDINATES (ANGSTROEM)
---------------------------------
  C      0.000000    0.000000    0.000000
  C      1.410409    0.000000    0.000000
  C     -0.724320    1.183586    0.000000
  C      2.073292    1.253208   -0.044708
  C     -0.064411    2.419058   -0.039207
  C      1.323048    2.445080   -0.047743
  H     -0.629466    3.347001   -0.041088
  H      1.852429    3.392160   -0.071804
  C      3.545723    1.317753    0.000066
  H     -0.520004   -0.956528    0.019731
  N      2.085359   -1.205080   -0.068653
  O      4.312423    0.364488    0.139874
  O      4.032585    2.583306   -0.125203
  H      5.005653    2.480252   -0.067898
  H     -1.811547    1.143588    0.009074
  H      3.068328   -1.165755    0.178380
  H      1.581522   -2.004078    0.295737
  H      1.410409    0.000000   10.000000
  O      1.410409    0.000000   10.957200
  H      2.337036    0.000000   11.197187

----------------------------
CARTESIAN COORDINATES (A.U.)
----------------------------
  NO LB      ZA    FRAG     MASS         X           Y           Z
   0 C     6.0000    0    12.011    0.000000    0.000000    0.000000
   1 C     6.0000    0    12.011    2.665286    0.000000    0.000000
   2 C     6.0000    0    12.011   -1.368767    2.236654    0.000000
   3 C     6.0000    0    12.011    3.917954    2.368220   -0.084487
   4 C     6.0000    0    12.011   -0.121718    4.571357   -0.074090
   5 C     6.0000    0    12.011    2.500199    4.620531   -0.090221
   6 H     1.0000    0     1.008   -1.189519    6.324915   -0.077645
   7 H     1.0000    0     1.008    3.500584    6.410253   -0.135689
   8 C     6.0000    0    12.011    6.700446    2.490192    0.000125
   9 H     1.0000    0     1.008   -0.982664   -1.807577    0.037287
  10 N     7.0000    0    14.007    3.940757   -2.277270   -0.129736
  11 O     8.0000    0    15.999    8.149298    0.688782    0.264323
  12 O     8.0000    0    15.999    7.620482    4.881740   -0.236599
  13 H     1.0000    0     1.008    9.459313    4.686996   -0.128308
  14 H     1.0000    0     1.008   -3.423328    2.161068    0.017147
  15 H     1.0000    0     1.008    5.798299   -2.202959    0.337089
  16 H     1.0000    0     1.008    2.988644   -3.787158    0.558863
  17 H     1.0000    0     1.008    2.665286    0.000000   18.897261
  18 O     8.0000    0    15.999    2.665286    0.000000   20.706107
  19 H     1.0000    0     1.008    4.416358    0.000000   21.159617

--------------------------------
INTERNAL COORDINATES (ANGSTROEM)
--------------------------------
 C      0   0   0     0.000000000000     0.00000000     0.00000000
 C      1   0   0     1.410408792387     0.00000000     0.00000000
 C      1   2   0     1.387629674561   121.46540976     0.00000000
 C      2   1   3     1.418429715822   117.86149259   357.95682680
 C      3   1   2     1.401216550379   120.41314464     1.85928728
 C      5   3   1     1.387728922094   119.18088952   358.56672225
 H      5   3   1     1.086448109445   120.54301814   179.88964476
 H      6   5   3     1.085257810950   120.27815199   180.37435074
 C      4   2   1     1.474525319058   120.29082617   177.88235003
 H      1   2   3     1.088916721971   118.52499331   181.18172947
 N      2   1   3     1.382927159506   119.21307977   183.26061362
 O      9   4   2     1.231295327431   126.25299933   356.29999903
 O      9   4   2     1.361745810407   113.26023456   176.60892359
 H     13   9   4     0.980186199946   104.58659711   179.32147663
 H      3   1   2     1.088000665320   119.35735619   180.54826763
 H     11   2   1     1.014297666448   115.28426224   195.45494424
 H     11   2   1     1.012437828384   115.27373933   333.44819984
 H      2   1   3    10.000000000000    90.00000000    90.00000000
 O     18   2   1     0.957200000000   180.00000000    90.00000000
 H     19   2   1     0.957200000000   104.52000000   180.00000000

---------------------------
INTERNAL COORDINATES (A.U.)
---------------------------
 C      0   0   0     0.000000000000     0.00000000     0.00000000
 C      1   0   0     2.665286354486     0.00000000     0.00000000
 C      1   2   0     2.622240060223   121.46540976     0.00000000
 C      2   1   3     2.680443703119   117.86149259   357.95682680
 C      3   1   2     2.647915534534   120.41314464     1.85928728
 C      5   3   1     2.622427610879   119.18088952   358.56672225
 H      5   3   1     2.053089385568   120.54301814   179.88964476
 H      6   5   3     2.050840047394   120.27815199   180.37435074
 C      4   2   1     2.786449030552   120.29082617   177.88235003
 H      1   2   3     2.057754387172   118.52499331   181.18172947
 N      2   1   3     2.613353594628   119.21307977   183.26061362
 O      9   4   2     2.326810958821   126.25299933   356.29999903
 O      9   4   2     2.573326645684   113.26023456   176.60892359
 H     13   9   4     1.852283478147   104.58659711   179.32147663
 H      3   1   2     2.056023290979   119.35735619   180.54826763
 H     11   2   1     1.916744807862   115.28426224   195.45494424
 H     11   2   1     1.913230223268   115.27373933   333.44819984
 H      2   1   3    18.897261339213    90.00000000    90.00000000
 O     18   2   1     1.808845855389   180.00000000    90.00000000
 H     19   2   1     1.808845855389   104.52000000   180.00000000



           ************************************************************
           *        Program running with 4 parallel MPI-processes     *
           *              working on a common directory               *
           ************************************************************
------------------------------------------------------------------------------
                   ___                                                        
                  /   \      - P O W E R E D   B Y -                         
                 /     \                                                     
                 |  |  |   _    _      __       _____    __    __             
                 |  |  |  | |  | |    /  \     |  _  \  |  |  /  |          
                  \  \/   | |  | |   /    \    | | | |  |  | /  /          
                 / \  \   | |__| |  /  /\  \   | |_| |  |  |/  /          
                |  |  |   |  __  | /  /__\  \  |    /   |      \           
                |  |  |   | |  | | |   __   |  |    \   |  |\   \          
                \     /   | |  | | |  |  |  |  | |\  \  |  | \   \       
                 \___/    |_|  |_| |__|  |__|  |_| \__\ |__|  \__/        
                                                                              
                      - O R C A' S   B I G   F R I E N D -                    
                                      &                                       
                       - I N T E G R A L  F E E D E R -                       
                                                                              
 v1 FN, 2020, v2 2021                                                         
------------------------------------------------------------------------------


Reading SHARK input file scan_c2_h.SHARKINP.tmp ... ok
----------------------
SHARK INTEGRAL PACKAGE
----------------------

Number of atoms                             ...     20
Number of basis functions                   ...    172
Number of shells                            ...     84
Maximum angular momentum                    ...      2
Integral batch strategy                     ... SHARK/LIBINT Hybrid
RI-J (if used) integral strategy            ... SPLIT-RIJ (Revised 2003 algorithm where possible)
Printlevel                                  ...      1
Contraction scheme used                     ... SEGMENTED contraction
Coulomb Range Separation                    ... NOT USED
Exchange Range Separation                   ... NOT USED
Finite Nucleus Model                        ... NOT USED
Auxiliary Coulomb fitting basis             ... NOT available
Auxiliary J/K fitting basis                 ... NOT available
Auxiliary Correlation fitting basis         ... NOT available
Auxiliary 'external' fitting basis          ... NOT available
Integral threshold                          ...     1.000000e-10
Primitive cut-off                           ...     1.000000e-11
Primitive pair pre-selection threshold      ...     1.000000e-11

Calculating pre-screening integrals         ... done (  0.0 sec) Dimension = 84
Organizing shell pair data                  ... done (  0.0 sec)
Shell pair information
Total number of shell pairs                 ...      3570
Shell pairs after pre-screening             ...      2599
Total number of primitive shell pairs       ...     20559
Primitive shell pairs kept                  ...      9742
          la=0 lb=0:    896 shell pairs
          la=1 lb=0:    849 shell pairs
          la=1 lb=1:    209 shell pairs
          la=2 lb=0:    395 shell pairs
          la=2 lb=1:    198 shell pairs
          la=2 lb=2:     52 shell pairs

Calculating one electron integrals          ... done (  0.0 sec)
Calculating Nuclear repulsion               ... done (  0.0 sec) ENN=    543.122699970875 Eh

SHARK setup successfully completed in   0.1 seconds

Maximum memory used throughout the entire GTOINT-calculation: 10.4 MB


           ************************************************************
           *        Program running with 4 parallel MPI-processes     *
           *              working on a common directory               *
           ************************************************************

Diagonalization of the overlap matrix:
Smallest eigenvalue                        ... 4.305e-04
Time for diagonalization                   ...    0.003 sec
Threshold for overlap eigenvalues          ... 1.000e-08
Number of eigenvalues below threshold      ... 0
Time for construction of square roots      ...    0.001 sec
Total time needed                          ...    0.005 sec

--------------
SCF ITERATIONS
--------------
ITER       Energy         Delta-E        Max-DP      RMS-DP      [F,P]     Damp
               ***  Starting incremental Fock matrix formation  ***
                      *** Initiating the SOSCF procedure ***
                      *** Re-Reading the Fockian *** 
                      *** Removing any level shift *** 
ITER      Energy       Delta-E        Grad      Rot      Max-DP    RMS-DP
  0   -549.35821875 -549.3582187458  0.000004  0.000004  0.000010  0.000000
               *** Restarting incremental Fock matrix formation ***
                 **** Energy Check signals convergence ****
              ***Rediagonalizing the Fockian in SOSCF/NRSCF***

               *****************************************************
               *                     SUCCESS                       *
               *           SCF CONVERGED AFTER   1 CYCLES          *
               *****************************************************

Total Energy       :         -549.35821875 Eh          -14948.79711 eV
  Last Energy change         ...   -4.4565e-10  Tolerance :   1.0000e-06
  Last MAX-Density change    ...    3.2003e-06  Tolerance :   1.0000e-05
             **** THE GBW FILE WAS UPDATED (scan_c2_h.gbw) ****
             **** DENSITY scan_c2_h.scfp WAS UPDATED ****
             **** ENERGY FILE WAS UPDATED (scan_c2_h.en.tmp) ****
             **** THE GBW FILE WAS UPDATED (scan_c2_h.gbw) ****
             **** DENSITY scan_c2_h.scfp WAS UPDATED ****
Total SCF time: 0 days 0 hours 0 min 2 sec 

Maximum memory used throughout the entire SCF-calculation: 228.2 MB

-------------------------   --------------------
FINAL SINGLE POINT ENERGY      -549.358218746295
-------------------------   --------------------

Storing actual gbw-file in scan_c2_h.081.gbw ... done

                            ***************************************
                            *     ORCA property calculations      *
                            ***************************************

                                    ---------------------
                                    Active property flags
                                    ---------------------
   (+) Dipole Moment


------------------------------------------------------------------------------
                       ORCA ELECTRIC PROPERTIES CALCULATION
------------------------------------------------------------------------------

Dipole Moment Calculation                       ... on
Quadrupole Moment Calculation                   ... off
Polarizability Calculation                      ... off
GBWName                                         ... scan_c2_h.gbw
Electron density                                ... scan_c2_h.scfp
The origin for moment calculation is the CENTER OF MASS  = ( 3.514193,  1.706235  2.371256)

-------------
DIPOLE MOMENT
-------------
                                X             Y             Z
Electronic contribution:      4.22484       1.87605      -9.86727
Nuclear contribution   :     -4.10467      -1.78073       9.69309
                        -----------------------------------------
Total Dipole Moment    :      0.12017       0.09532      -0.17418
                        -----------------------------------------
Magnitude (a.u.)       :      0.23209
Magnitude (Debye)      :      0.58993



--------------------
Rotational spectrum 
--------------------
 
Rotational constants in cm-1:     0.026581     0.007855     0.007189 
Rotational constants in MHz :   796.891579   235.480619   215.507649 

 Dipole components along the rotational axes: 
x,y,z [a.u.] :    -0.189422    -0.114321    -0.070122 
x,y,z [Debye]:    -0.481472    -0.290582    -0.178235 

 
                              **** TRAJECTORY DONE ***

                         SUMMARY OF THE CALCULATED SURFACE

------------------
TRAJECTORY RESULTS
------------------

Column   1: B

The Calculated Surface using the 'Actual Energy'
   2.00000000 -549.35220681
   2.10000000 -549.35481783
   2.20000000 -549.35663407
   2.30000000 -549.35787301
   2.40000000 -549.35869606
   2.50000000 -549.35922314
   2.60000000 -549.35954286
   2.70000000 -549.35971990
   2.80000000 -549.35980025
   2.90000000 -549.35981597
   3.00000000 -549.35978887
   3.10000000 -549.35973357
   3.20000000 -549.35965988
   3.30000000 -549.35957459
   3.40000000 -549.35948264
   3.50000000 -549.35938782
   3.60000000 -549.35929318
   3.70000000 -549.35920125
   3.80000000 -549.35911393
   3.90000000 -549.35903265
   4.00000000 -549.35895828
   4.10000000 -549.35889123
   4.20000000 -549.35883148
   4.30000000 -549.35877870
   4.40000000 -549.35873234
   4.50000000 -549.35869169
   4.60000000 -549.35865588
   4.70000000 -549.35862448
   4.80000000 -549.35859669
   4.90000000 -549.35857189
   5.00000000 -549.35854957
   5.10000000 -549.35852930
   5.20000000 -549.35851075
   5.30000000 -549.35849366
   5.40000000 -549.35847780
   5.50000000 -549.35846302
   5.60000000 -549.35844918
   5.70000000 -549.35843619
   5.80000000 -549.35842396
   5.90000000 -549.35841242
   6.00000000 -549.35840153
   6.10000000 -549.35839122
   6.20000000 -549.35838147
   6.30000000 -549.35837223
   6.40000000 -549.35836347
   6.50000000 -549.35835517
   6.60000000 -549.35834729
   6.70000000 -549.35833980
   6.80000000 -549.35833270
   6.90000000 -549.35832594
   7.00000000 -549.35831952
   7.10000000 -549.35831341
   7.20000000 -549.35830760
   7.30000000 -549.35830207
   7.40000000 -549.35829680
   7.50000000 -549.35829179
   7.60000000 -549.35828700
   7.70000000 -549.35828245
   7.80000000 -549.35827810
   7.90000000 -549.35827395
   8.00000000 -549.35826999
   8.10000000 -549.35826622
   8.20000000 -549.35826261
   8.30000000 -549.35825916
   8.40000000 -549.35825587
   8.50000000 -549.35825272
   8.60000000 -549.35824971
   8.70000000 -549.35824683
   8.80000000 -549.35824407
   8.90000000 -549.35824143
   9.00000000 -549.35823891
   9.10000000 -549.35823649
   9.20000000 -549.35823417
   9.30000000 -549.35823195
   9.40000000 -549.35822982
   9.50000000 -549.35822778
   9.60000000 -549.35822582
   9.70000000 -549.35822394
   9.80000000 -549.35822214
   9.90000000 -549.35822041
  10.00000000 -549.35821875

The Calculated Surface using the SCF energy
   2.00000000 -549.35220681
   2.10000000 -549.35481783
   2.20000000 -549.35663407
   2.30000000 -549.35787301
   2.40000000 -549.35869606
   2.50000000 -549.35922314
   2.60000000 -549.35954286
   2.70000000 -549.35971990
   2.80000000 -549.35980025
   2.90000000 -549.35981597
   3.00000000 -549.35978887
   3.10000000 -549.35973357
   3.20000000 -549.35965988
   3.30000000 -549.35957459
   3.40000000 -549.35948264
   3.50000000 -549.35938782
   3.60000000 -549.35929318
   3.70000000 -549.35920125
   3.80000000 -549.35911393
   3.90000000 -549.35903265
   4.00000000 -549.35895828
   4.10000000 -549.35889123
   4.20000000 -549.35883148
   4.30000000 -549.35877870
   4.40000000 -549.35873234
   4.50000000 -549.35869169
   4.60000000 -549.35865588
   4.70000000 -549.35862448
   4.80000000 -549.35859669
   4.90000000 -549.35857189
   5.00000000 -549.35854957
   5.10000000 -549.35852930
   5.20000000 -549.35851075
   5.30000000 -549.35849366
   5.40000000 -549.35847780
   5.50000000 -549.35846302
   5.60000000 -549.35844918
   5.70000000 -549.35843619
   5.80000000 -549.35842396
   5.90000000 -549.35841242
   6.00000000 -549.35840153
   6.10000000 -549.35839122
   6.20000000 -549.35838147
   6.30000000 -549.35837223
   6.40000000 -549.35836347
   6.50000000 -549.35835517
   6.60000000 -549.35834729
   6.70000000 -549.35833980
   6.80000000 -549.35833270
   6.90000000 -549.35832594
   7.00000000 -549.35831952
   7.10000000 -549.35831341
   7.20000000 -549.35830760
   7.30000000 -549.35830207
   7.40000000 -549.35829680
   7.50000000 -549.35829179
   7.60000000 -549.35828700
   7.70000000 -549.35828245
   7.80000000 -549.35827810
   7.90000000 -549.35827395
   8.00000000 -549.35826999
   8.10000000 -549.35826622
   8.20000000 -549.35826261
   8.30000000 -549.35825916
   8.40000000 -549.35825587
   8.50000000 -549.35825272
   8.60000000 -549.35824971
   8.70000000 -549.35824683
   8.80000000 -549.35824407
   8.90000000 -549.35824143
   9.00000000 -549.35823891
   9.10000000 -549.35823649
   9.20000000 -549.35823417
   9.30000000 -549.35823195
   9.40000000 -549.35822982
   9.50000000 -549.35822778
   9.60000000 -549.35822582
   9.70000000 -549.35822394
   9.80000000 -549.35822214
   9.90000000 -549.35822041
  10.00000000 -549.35821875


Timings for individual modules:

Sum of individual times         ...      285.981 sec (=   4.766 min)
GTO integral calculation        ...       36.217 sec (=   0.604 min)  12.7 %
SCF iterations                  ...      249.764 sec (=   4.163 min)  87.3 %
                             ****ORCA TERMINATED NORMALLY****
TOTAL RUN TIME: 0 days 0 hours 5 minutes 18 seconds 677 msec
