LAMMPS data file via write_data, version 2 Aug 2023, timestep = 100000, units = lj

15264 atoms
2 atom types

0 19.048812623618396 xlo xhi
0 19.048812623618396 ylo yhi
-57.14643787085519 57.14643787085519 zlo zhi

Masses

1 1
2 1

Atoms # atomic

10790 1 4.980923954160018 1.2068835902666106 -54.86248676404844 2 -1 1
12926 1 6.72531835591576 18.786062570949323 56.43444517567108 1 -2 -1
10718 1 8.226270470637566 0.7324021635529615 -55.225036285965196 -2 3 1
7080 1 7.722589208480653 1.3499744309950783 55.42991042759726 1 -1 -1
15189 1 11.449489674205495 2.392190169710005 -54.36360331063107 2 1 1
11341 1 10.315616849373782 3.274670211365935 -56.72828395487934 1 -1 1
7175 1 12.416101894541066 0.45611474576893046 56.47106297863783 1 -1 -1
9626 1 17.902599920486328 7.747925539862475 -54.0738325128605 0 1 1
12415 1 4.857448598464889 3.3185282951100272 -56.05534935796084 0 1 0
12223 1 3.300865987506 18.705719336321227 -54.42660560784821 0 0 0
11384 1 8.137024510301007 2.471246313718083 -56.74057841593467 -1 4 1
11110 1 9.970456935276678 5.189370070155476 -55.27121994053891 -1 0 1
14877 1 9.062679097205836 4.567861685506664 56.466598795935965 -1 1 0
12657 1 10.88462839428179 0.4269045642688428 -55.1637906195882 1 0 0
14955 1 3.8173962136159796 6.392929969559961 -54.55347981219553 0 -1 1
12767 1 5.904101322912082 5.9301420129181786 -54.95227711776976 0 0 0
14645 1 6.209250543436776 3.9287673204799094 -56.84058414531419 1 -3 1
11135 1 7.784431113380692 6.04004251082521 57.12962910588392 1 -2 0
11294 1 9.017523052420223 5.465758728965931 -56.13334855052963 -1 -1 1
11345 1 11.58934142991109 8.58776172702476 -56.24013964053911 -2 4 1
15237 1 13.090279858043184 5.758892345203775 -54.1918283192565 1 -1 1
11430 1 15.536720613184269 2.3591213316147934 -55.274212525403364 1 -1 1
11332 1 15.90164358905787 5.354412982994978 -55.426258349207416 0 -1 1
11842 1 3.442140259347282 4.226302364600793 57.02750753526596 0 -1 -1
15106 1 1.7790695493383435 7.9483756937988765 56.48658441307734 3 -1 0
14600 1 6.138691999452033 5.174026115222102 -56.81802383931187 1 0 1
8314 1 11.409900836294678 5.375026870488635 -56.029419387050936 0 -1 0
14878 1 16.831202021786826 7.182716181662703 -55.03683042596157 -1 0 1
7156 1 16.578674742355076 8.6415194590835 -53.73353016033946 0 0 0
15183 1 1.19285829358207 6.700785322341846 -54.48672922721478 4 0 1
12299 1 6.1254639220713445 7.401477704370114 56.02833776276627 0 -1 -1
15204 1 12.00448643559439 9.67947874669472 -55.34142460760486 0 0 1
8015 1 13.204549218725989 7.275127283922435 -56.67274796421113 0 1 0
12492 1 0.4766180362734447 9.014037475932641 55.85626649414565 1 -1 -1
11423 1 2.84961188832448 12.444660392545352 -54.96824515396027 -2 -2 1
7368 1 5.286235834403603 10.705649633261467 -57.024393255830404 -2 1 0
11303 1 10.319566901054708 11.077897223028303 -54.24368092746201 1 -2 1
11197 1 10.185557270271836 12.122415697257026 -55.47507530042957 -1 -1 1
11654 1 12.893357038010915 10.632172018286047 -55.48243422146956 0 -2 0
8085 1 0.7722201435128629 10.786220693499052 55.091145352908725 -2 2 -1
10590 1 3.356291333620132 14.635760376487823 -54.819313410069974 -2 0 1
11483 1 3.487247090798234 12.018625611798287 -56.88664898957635 1 1 0
7480 1 7.801301802108683 12.484782568407846 -53.418354098392015 1 -1 0
11221 1 9.87352127755283 12.85964579737726 -54.589153172572786 -2 0 1
14112 1 10.288180038744883 11.844321485114888 53.79653070071296 0 0 0
8694 1 9.420398687467605 12.889849479915743 56.679668571461285 -1 0 -1
12225 1 15.163823567543067 13.269222209115648 -54.77991755970198 2 -1 0
14773 1 18.943663448861862 18.346707907567342 56.51263644288959 -1 0 0
11431 1 1.8787369972184274 14.517162830461086 56.7190112829807 0 2 0
10662 1 8.922050237392957 13.203693124427115 -54.3476330929752 1 1 1
11938 1 8.782094096555952 17.278892136266553 -57.13768848578354 -1 2 0
12041 1 7.86406578569784 15.564957213851896 -54.41901777785307 -2 -1 0
7802 1 8.83434832797471 11.80663693073616 -56.1434399319031 -1 2 0
10984 1 11.732620830284667 14.28964083536411 -55.95521218093032 -1 0 1
11087 1 13.769343330372273 12.958377519381802 -53.42465657189076 0 1 1
14575 1 15.009964398765833 14.087399328451118 -54.19058578492592 -1 2 1
11748 1 1.670087099924955 16.780537068658372 -55.523569189471395 -2 -1 0
7553 1 5.4473986910454 16.945650574681025 -56.6013315902303 -1 0 0
10893 1 4.0514392525440295 16.573158669032416 -56.87405477597163 -1 0 1
14721 1 6.435873786341782 15.227869466184972 -55.05151373948269 0 -1 1
10547 1 7.299044949236449 16.214468323775737 -56.67058178122416 1 -3 1
13966 1 8.095919039455158 15.473032813028917 -56.195763917300326 0 -3 1
11061 1 16.982034103414374 17.000180590243605 -55.12455980937321 -2 -1 1
7011 1 0.7572242533988763 17.86621070841657 -56.35551681064897 2 0 0
7685 1 2.810469459458485 18.439005472935335 -57.02048065328959 0 -2 0
13324 1 3.691575109997348 18.58653712108205 56.71659584979394 0 -1 0
6964 1 9.173709954822217 1.043327088234871 -56.969567839565805 -1 1 0
12149 1 12.354420307060947 16.888361081301912 -56.252163186503 0 0 0
11569 1 12.712250432032077 17.55739365407395 -54.68189015310594 0 0 0
10402 1 15.223654087261467 1.2447736785580046 56.830056279435084 0 -1 0
14750 1 14.860955177265717 0.5395639855143418 -56.014134004541084 1 3 1
14814 1 18.03746190821151 18.15105975761178 56.87296467452627 0 0 0
6943 1 0.20026395618066475 2.8934838938845915 56.19275007590529 -1 -1 -1
11194 1 17.712672106213148 0.9104177936654841 55.409761645276994 1 -1 0
7137 1 1.1801099609824734 0.8578130039026989 -51.69166840985343 -2 -1 0
7803 1 4.264961804607357 0.7031214775102362 -53.79006331630152 -2 2 0
7645 1 2.994558198193172 4.242692396526596 -53.12550172184975 0 1 0
7701 1 7.0764414732465895 17.641698636457356 -52.03985312946339 0 -1 0
11641 1 7.1175276457815935 1.7532196071475146 -53.85351247589332 2 -1 0
7050 1 6.478128158143413 1.9861911726347918 -55.39150345344378 -1 0 0
11109 1 13.228891182309399 2.3253151040398854 -54.36382025665208 0 -1 1
11945 1 14.738424063421665 2.9552984438144794 56.66222877606723 2 2 -1
11069 1 14.776906883383859 2.4893002209330395 -54.001283547505246 1 1 1
11553 1 15.441247799660188 19.03290419447868 -53.7215960203059 0 -1 0
12749 1 1.7822429560000481 2.508966572489843 -54.60471966278339 2 1 0
11925 1 6.429336480725525 2.063394566684914 -52.3630791189055 1 -2 0
11879 1 7.417508954125166 0.10599178055625241 -53.15360964420101 0 2 0
11286 1 9.39320234936737 2.3381541473887193 -52.56338565893567 2 -2 1
14830 1 8.05900980735169 4.841460882960588 -55.19236904184354 0 1 1
7571 1 12.552974653791477 3.621267362792169 -54.65130746829632 2 2 0
14720 1 13.084770270091292 3.8733771296929906 -56.321556348371644 0 0 1
8451 1 16.1850207528076 1.7590406551000835 -53.69628268416677 -1 1 0
7584 1 0.5376348265737878 2.1008646723492457 -53.620019096903164 0 0 0
6982 1 18.567377808922114 4.967469350507998 -56.056040164624434 -1 2 0
14784 1 17.0819773337204 1.7932017734801147 -55.901828881252904 0 1 1
6998 1 3.353732113166376 4.154209724063162 -54.61089987618366 -2 -1 0
14908 1 6.823637785126005 3.763787946418036 -55.52817582382204 -1 -1 1
14372 1 8.086091908985065 5.890141311575636 -55.072032982216044 1 2 1
8431 1 9.075927657905105 3.7211860937485524 -53.23866072552994 0 1 0
8394 1 14.603872037903281 4.9263570410903 -54.907876087483515 1 1 0
15223 1 16.763590192838407 5.02987252531929 -54.22332365780007 1 1 1
8138 1 14.950514965008873 6.03345255632781 -55.05305042572593 -2 0 0
10342 1 15.54746272953741 3.6237662570561224 -53.29285107116776 0 0 1
11225 1 2.980951142102463 4.4682484660311745 -56.05663891325519 1 -2 1
11385 1 7.668375484930594 7.8245309512817975 -55.99248523575279 1 -1 1
12430 1 9.458901873121205 9.73021216411962 57.010112413789805 -1 1 -1
11214 1 12.954847577942077 5.632807759287836 -56.083726100323815 1 0 1
11172 1 14.416752822942897 6.235611372588725 -51.9321980820249 1 2 1
14130 1 3.637978093648847 6.74380399764928 -53.223130702548666 2 -1 1
10396 1 2.1201161865032185 8.834571796634908 -55.74441140860943 1 -1 1
7085 1 6.6514258264696515 7.664927196017934 -52.01497273420893 0 2 0
12268 1 7.221481087214718 9.473972414992671 -55.911118766387 1 2 0
11549 1 6.7600082329594935 10.632987090281803 -54.006463999084836 0 0 0
11777 1 10.80024339240085 7.520961165705122 -54.153378197789706 2 2 0
11147 1 10.03518505674722 7.747163722010169 56.73867381166313 1 0 0
12473 1 13.357289184511794 6.4642366641347015 -53.179287050114596 -1 1 0
11190 1 13.036174954963585 9.750783141180495 -54.78139323598097 1 0 1
7135 1 1.6435205193825857 7.794969374494063 -54.08377349144874 -1 -1 0
11163 1 9.590376655460915 9.207168706115086 -52.79098673200004 -2 -1 1
7007 1 11.389930644596713 7.8875321641940435 -52.333103832734196 0 -1 0
7095 1 19.01996719824732 8.810377190056467 -56.55093542114257 -2 1 0
11055 1 15.375771746787537 9.02560536857525 -54.71203757201493 -2 -1 1
7524 1 0.5009889323720129 8.477555541856653 -52.217028420088454 3 0 0
10055 1 0.7919176691969645 12.401194301524756 -53.635213286409275 -1 1 1
7102 1 1.912142794523293 10.577975554661837 -52.120221736852535 -2 3 0
6953 1 11.40884806878421 14.053457900428247 -51.78731483935821 -1 0 0
11567 1 14.822846480785048 13.302411485399453 -52.893120336332345 1 0 0
8949 1 16.657407015629715 12.484977572045826 -56.18967842795567 -2 0 0
8398 1 0.0010176521256539672 9.756483361350261 -52.86698283368835 0 3 0
11981 1 3.310708817625609 13.767418235808604 -53.51366250121854 1 -1 0
12329 1 5.724410752170031 14.142686519598216 -51.0880322398014 2 2 0
11258 1 7.40045054294463 17.176261793406375 -54.03909197265927 2 -1 1
14498 1 9.248921260915692 13.375655385403938 -52.30855163401135 0 -2 1
12156 1 17.281005236370355 13.692449127420236 -52.6926945111805 1 -1 0
7500 1 17.5325657228894 14.223962146609296 56.97441562419681 2 2 -1
14547 1 1.8064612058682827 13.01556794650919 -54.282254948531126 1 1 1
11788 1 2.9600295402647068 15.580286263058731 -55.170165152335755 2 1 0
12681 1 5.474034363045052 16.810829585999954 -54.40997308263524 1 0 0
7520 1 9.543382819067306 17.88958539220318 56.83634296925516 -2 1 -1
7477 1 7.714960589803204 16.868279187803235 -55.56867455605748 -1 0 0
7611 1 10.379679600316031 17.59967547394245 -54.530247857993636 -3 1 0
11182 1 10.99149278391276 15.26419160050109 -52.42338480145854 -1 -1 1
14094 1 13.245181522398578 16.70423154434971 -52.88982510521102 1 0 1
14591 1 17.35990447284808 18.11563952346786 -55.252909325895956 -2 0 1
7404 1 2.97223766581185 0.017789941276650012 -55.64668446805512 -1 -1 0
7155 1 9.108179075639116 17.57771467636733 -53.40059212461951 1 -1 0
14990 1 11.299802436376666 16.534937340493972 -55.28469198279729 -2 -2 1
12107 1 14.451266059561537 1.3431295784272825 -53.284582325867 0 -1 0
12117 1 14.291326189824412 1.356548620149008 -56.52722901550152 0 2 0
15059 1 15.037476263633952 18.670411613813354 -54.89011080392052 1 1 1
14190 1 16.840301800633036 18.100440491361546 -56.164440098266674 1 1 1
15094 1 18.449635510365376 1.46285875406693 -52.665377603299476 0 -1 1
7848 1 5.437380871866485 18.289484633352018 -54.382689181203986 0 1 0
14346 1 5.607080514478065 0.819815025415393 -52.20946849480515 0 2 1
11876 1 12.310646804531972 0.34372794476132573 -53.19265513000956 1 0 0
12283 1 11.893656963648459 1.5184864910837774 -53.30814553089452 1 1 0
15194 1 13.846184498232047 2.2135603744130052 -52.714980732888336 -2 1 1
7309 1 16.884868881203857 1.6940866606661702 -54.476147431860916 0 2 0
7143 1 17.228328673567773 0.3137086502219951 -55.26703778175849 -1 -3 0
14692 1 16.97011287719616 1.7870843505040401 -51.3406852529175 1 -1 1
11235 1 2.0371197959148004 2.473483429473496 -53.41818830036004 -1 0 1
7209 1 4.200562447757688 2.0036377031628496 -53.976901089447324 0 -2 0
15035 1 7.152477130543843 4.736364445122248 -50.40922724469104 0 1 1
14703 1 10.344468349530612 5.4543915380602 -53.146559045040036 -2 -1 1
14984 1 11.33846026406641 3.5841851281867574 -51.858780968732056 1 0 1
12587 1 12.880950386399046 2.9090586805169885 -53.153275226567295 0 1 0
11133 1 15.879353612754583 3.4033405312440648 -51.06045434562823 -1 -2 1
15147 1 18.359313634730658 3.322980224408881 -52.44620018751692 -1 2 1
10278 1 2.3563947852539395 5.759361896360829 -54.478045254957806 1 -3 1
11838 1 10.182016936983468 5.2955987449282045 -51.60037660029892 2 0 0
8008 1 7.672252213511807 4.928908991647432 -52.6445650787551 -2 1 0
6940 1 15.393425559585102 3.686108689603517 -52.144036938572505 -1 -2 0
12157 1 15.053925462730074 5.632376686109565 -53.41672342120775 0 2 0
7465 1 0.005321782981493328 6.047491500490518 -53.673827093523805 0 0 0
7495 1 17.92398860109365 4.054158116003975 -51.81852327185357 -4 -1 0
11799 1 2.132161271768342 7.204458207895643 -52.677379424319 0 1 0
8757 1 3.428580931894772 7.1903016560918145 -51.5203388650853 -1 2 0
11677 1 5.446235677037827 5.556890008118766 -52.99888455823599 0 -1 0
7399 1 4.363065572814014 5.08121464771442 -50.68820413742898 0 -1 0
10494 1 6.427938034986585 5.294327525728144 -53.92547612956116 0 0 1
15053 1 10.152965065550438 6.389661827512586 -54.69111920806056 1 2 1
11505 1 14.845442484827302 4.680775298089563 -51.779895016234335 3 1 0
7039 1 15.80125949359505 6.9858495512998315 -50.016933613307444 -1 0 0
10741 1 17.25703995009295 7.854856649966874 -53.24571050081729 1 -1 1
7339 1 15.731016605414647 7.814554833574127 -52.65413480570612 -1 2 0
11234 1 1.0006288316558825 4.498223782341313 -51.94942782295586 -3 1 1
15114 1 9.24006901511168 7.117285935924763 -50.65435646491081 0 0 1
11271 1 11.842912323950266 7.754454663272997 -55.18303289921109 0 1 1
14930 1 13.213525255380452 8.90173416953055 -51.54072911555833 0 0 1
11845 1 15.495931262377896 9.532544811378711 -53.063461373525335 1 -2 0
11522 1 16.32387620351783 6.541151090286165 -50.78472412307463 1 -1 0
10985 1 3.8568394873616607 10.562142377325616 -51.52795130819128 -4 0 1
15139 1 9.121099522307661 9.13573113164785 -54.34285388488655 3 1 1
14295 1 5.915462766112543 12.8202937919648 -53.48348175264094 -1 2 1
14811 1 9.323375703976122 9.505540777963176 -51.76212826765621 2 1 1
11874 1 10.220883216812494 11.768770166693313 -53.27553764404054 0 1 0
7191 1 10.728446674415858 9.605227442236108 -51.36998781541751 -5 0 0
11743 1 17.909009178935403 11.037804042762895 -51.122587426458864 -2 0 0
11568 1 15.31836132442417 12.369785271238543 -56.17255441211953 1 0 0
14993 1 1.6458149413792817 9.796390846641174 -52.83432073746664 2 0 1
15065 1 4.235440358346025 12.263120189177796 -53.66701061089112 0 -2 1
10823 1 8.365542517147357 12.546172162306814 -52.02730946594982 0 0 1
11896 1 9.038532809017829 12.02800097762412 -53.02405602727036 1 2 0
7666 1 10.887670925101864 12.87416914662934 -55.375249020411246 3 0 0
11922 1 16.72706023022389 12.038951563407926 -50.92840856814348 -1 -1 0
8464 1 17.363491610501654 12.345578743455233 -53.22211759766149 -1 0 0
10092 1 17.976654768035814 14.366245665411062 -52.325612689046885 0 0 1
7005 1 18.99186328837594 12.902557797828592 -52.29480410047007 0 0 0
7823 1 7.382921767825409 16.252764360530776 -51.29897707003008 3 -1 0
14409 1 9.894707356472257 12.652206620671889 -51.10808729975151 1 -1 1
14893 1 11.111736213236242 12.883584482281217 -52.510422847843145 -1 -3 1
11073 1 15.124716693961357 11.94330005809687 -53.13045237553005 0 1 1
14944 1 16.38821767438233 15.691093496196622 -52.34563490899116 0 0 1
10563 1 16.471286746826635 18.376877608205803 -52.039280229687606 0 0 1
8503 1 18.119985046397826 17.411702971466152 -53.28564966936424 -1 -1 0
14767 1 4.271437493663622 17.84056216099671 -52.74607362929728 2 -3 1
15089 1 10.023759067735508 15.857460107518229 -53.36618650380057 0 1 1
11417 1 7.883189307021726 14.181899417201713 -54.182749994360165 1 -1 1
7704 1 13.07049112798784 15.650893758957906 -52.89111756941592 0 -1 0
14997 1 0.28590862668944633 18.824105335942296 -53.970773905430505 -1 1 1
10808 1 1.722070656807412 17.99988207486511 -54.76671724398167 0 1 1
15243 1 0.9658842061913837 16.40419331525628 -51.239464692864956 0 0 1
11448 1 5.462292646300937 18.741086569449784 -49.85038035686462 0 0 0
7269 1 8.874745882569117 18.57638676075507 -50.124861684835075 1 0 0
14054 1 10.09111044678438 18.62765744061919 -54.113445114739086 1 -1 1
11905 1 16.04478817763505 18.033933905977417 -53.460500374470044 3 1 0
10847 1 17.236090900710238 0.6812153573445839 -52.329167386752616 0 2 1
12478 1 18.856618824904125 1.5279463799680528 -51.215751476389926 0 1 0
7081 1 2.6582867410190105 1.4604798685962002 -51.86557014685974 0 1 0
14936 1 1.1552851528362416 1.8843689722371912 -49.47769692255423 2 1 1
11327 1 10.603386819591591 1.9030293105735119 -49.78022766916552 1 3 1
7604 1 10.557325480752944 0.31983839466276504 -51.86643525490995 -2 3 0
6991 1 11.24946229246825 19.022303933512703 -49.789565943050086 1 0 0
11700 1 17.33059398687262 1.6747037155613578 -50.282173262840075 -1 1 0
9013 1 18.155372305016858 0.8848731853988595 -49.76834744038303 0 -1 0
11318 1 2.0793788245702216 2.69107693652128 -51.08209434892059 -2 0 1
7938 1 5.152450421773092 18.52222593956284 -52.192366585452504 -1 0 0
10947 1 8.180210206580064 2.5958205200336053 -53.78425265727192 2 3 1
11907 1 6.973694229736 3.4421863356054794 -50.88663332937264 -2 1 0
12172 1 10.864345258873565 3.7124541623278304 -53.48631690023057 2 0 0
11284 1 9.037986556038337 2.5905006630031653 -50.35293128885463 0 -3 1
10879 1 9.635508963395612 5.152402431916904 -50.30855439674606 0 1 1
12089 1 11.435080317349444 2.43338414791695 -50.270369806546185 0 0 0
6976 1 13.061782408329796 4.732566513937223 -50.88026264393257 0 2 0
11033 1 14.173007294448198 4.663380681847719 -49.305329183799 0 -1 1
11433 1 15.128736640849556 3.225378182950974 -50.034333016655985 1 -4 1
11421 1 1.0579551531150357 6.204229943676287 -48.46452387317581 -1 -3 1
7061 1 1.8851620633272723 5.810685697003357 -51.85136756266699 -1 2 0
11348 1 3.240960464809149 3.7950130351611984 -51.14949615060294 0 2 1
11946 1 2.362830460107035 5.027774522183568 -53.321063718032896 -1 1 0
12143 1 14.754592878163209 4.388829857902746 -53.02012455435448 -2 0 0
12677 1 16.766652940265054 4.139975779793629 -50.806489894745454 1 0 0
11155 1 16.393069794785024 5.7510396707235865 -51.631257511306025 -2 0 1
15010 1 4.821649877773373 6.978930796924779 -49.4098342326277 2 1 1
15165 1 5.014041197558616 8.968101028116806 -49.56411847012168 3 -2 1
12171 1 8.20838023253343 7.402248771489962 -49.88796553381294 -1 0 0
14778 1 7.0589523391824995 6.52521700287418 -52.261472938683966 0 1 1
11379 1 8.587190291783308 6.253176728296355 -53.47742760439333 1 -1 1
11666 1 17.972589307258136 8.68816881738904 -51.77990420687771 -1 0 0
11383 1 10.178824649885097 10.502663100532356 -51.20691444165221 0 0 1
7221 1 11.18336306478129 8.082816325218003 -50.06128628527326 2 -1 0
12424 1 12.018271562919747 9.595890783259712 -51.07509680688034 0 0 0
6995 1 18.981460522957715 6.604984686696619 -48.304610592511 -1 0 0
11774 1 18.559684005614876 8.752286283549388 -53.41473560314981 -1 0 0
14450 1 2.067625028326739 11.11578890198675 -50.15335798463139 2 -1 1
7750 1 0.6871268378954051 12.04630469166745 -51.119338308094946 -1 3 0
7247 1 7.724281109107642 9.49614731753911 -52.08546398829594 0 1 0
8095 1 4.646225901693886 13.510302129962339 -52.243698131201135 -1 1 0
11507 1 9.033918629235123 11.56513984271665 -51.38372066670615 0 1 0
10217 1 13.06060052317294 10.478922810227107 -51.03925081123134 0 -1 1
12127 1 17.01887136550305 9.136455574382705 -50.89395832606854 0 -1 0
7074 1 5.058097722102546 12.0246666500004 -51.01416426433475 0 -2 0
12380 1 3.462944951413541 14.286130775903066 -52.640606405141696 1 0 0
7166 1 8.473278483782359 12.188524310130735 -48.91554809324391 -1 1 0
11045 1 12.818743028906281 12.777727560754009 -50.43146944146274 4 0 1
7675 1 15.84721120474306 10.727357951782983 -50.4349559717958 -1 0 0
11817 1 12.365447850588081 13.814645590248135 -53.37571657471324 0 -3 0
7020 1 17.78694164148708 12.333000703094976 -51.77750331956834 -2 0 0
8382 1 2.21294391630609 14.184526280403336 -46.65177183420578 0 2 0
15141 1 8.551483693737843 16.793018642368466 -50.617636308801735 2 0 1
11645 1 10.038816922603859 14.226619214000925 -51.41692136446959 -1 2 0
8122 1 10.541619350694177 15.207969608105797 -48.23322097378318 0 1 0
11796 1 16.273006748549776 13.323418970924044 -51.56237602998055 0 0 0
14906 1 18.338682151500894 12.535956413928698 -50.601639293313156 1 -5 1
8759 1 18.582933972293095 13.171984653431963 -49.228331921262566 0 -1 0
12391 1 3.419794597242108 17.59087995466685 -52.26622926175296 3 1 0
12626 1 4.399997714745838 16.427588491156573 -51.9594542028199 2 3 0
11750 1 7.852301136147592 18.37142346855643 -51.69978084382465 1 -3 0
12139 1 11.720247792820432 15.968941833242413 -51.36171711692008 -1 0 0
6923 1 11.673545774599136 18.660938468164787 -52.99568408843427 2 0 0
12421 1 9.877566090601542 0.5147763597579907 -47.29063081542108 -1 0 0
11492 1 10.284887587346693 18.758804739560777 -48.699248043840946 -3 2 0
15083 1 12.792661780764043 13.947757404963912 -50.26158587589112 1 1 1
11292 1 17.11185113609579 18.86212204157319 -51.08995985677539 0 0 1
11521 1 15.02493649187566 12.701219211493875 -50.66935471230886 -1 -1 0
7150 1 0.3699993580533615 17.380424919086412 -50.13340432520618 1 0 0
11533 1 4.542628207553129 17.348906875580614 -49.3343246776998 1 -1 0
11883 1 12.201783190815634 17.551780188740178 -50.06187814091239 0 0 0
14258 1 10.974299534325983 17.061271555393 -51.701973690869096 0 0 1
12181 1 12.944380028707558 15.860452501998738 -50.71216108960795 0 1 0
7889 1 14.338450666613822 17.392796031876205 -49.34652235279973 0 -1 0
10703 1 18.089160729634884 18.635461311757403 -52.88003249105 0 1 1
7854 1 1.8375353443339135 1.0597483761267583 -48.087914165516366 -1 0 0
7010 1 4.744563649609044 0.5414884910614055 -49.245962060316906 1 1 0
11592 1 1.3907022891159342 5.205282887009018 -49.28841881641252 -2 1 0
15203 1 6.073218735176786 0.8209903908893653 -48.80412618452147 0 2 1
7363 1 10.377085729512256 0.3872291274707474 -50.5828135050298 -1 0 0
12701 1 14.535132487822933 0.8329778889937597 -49.32008301399683 0 0 0
11465 1 15.402411523012171 18.77159725439816 -48.92213290843691 -1 0 0
12654 1 15.217449168093417 3.8766435266927672 -48.41759056098293 -1 1 0
12084 1 16.118049904182268 18.762175270593236 -50.27618633496941 0 0 0
15037 1 16.82439711613415 0.623108600830644 -48.50976159270109 -1 3 1
6986 1 0.5729815312197644 3.095718652058786 -49.03217698128671 0 2 0
11527 1 2.1855715724497347 1.699242442999747 -47.04466522282568 -2 0 0
7805 1 6.23390666941159 1.8856725506532943 -47.55163047169105 0 0 0
12141 1 7.623427795714264 1.8514227629507323 -50.235910180277244 -3 0 0
7519 1 9.090886076067976 4.126902217301755 -49.55250018728415 -3 -1 0
8393 1 11.178717745514538 0.7018769185439444 -48.536191140980684 0 2 0
11477 1 8.059805488532698 2.863206916895762 -49.661313287481114 2 3 0
11196 1 11.665119214257885 2.668676891391415 -48.92607493526435 -2 1 1
11729 1 18.81575288884341 2.5986949326772417 -51.66569335150548 0 0 0
11467 1 18.364110201309025 0.3372646956811094 -46.35964848064493 -1 -1 0
7850 1 5.588012826176369 4.149186307742989 -47.573484393105645 1 -1 0
10593 1 7.271311094137152 6.114103766809061 -49.97018947271709 0 2 1
7788 1 6.0852020595926 6.226432947236464 -49.5001179905749 1 2 0
8055 1 10.147630080106172 5.162858174038936 -47.34033378654101 0 1 0
14451 1 11.912048471954753 5.133155181316328 -48.24759594730325 -1 2 1
14511 1 14.370880601333084 6.789523276391634 -47.99086742396392 -1 1 1
11562 1 14.453592993766032 4.697006781842362 -47.20451750462783 -1 0 0
11561 1 0.682021671606855 3.983950017333882 -49.844934185650594 0 0 0
11833 1 18.86819887671661 5.27047303166607 -46.64616162601702 -2 -4 0
11848 1 3.7435176181891463 6.2804181253071905 -48.15914709034395 2 0 0
8318 1 1.4644595045344844 8.375532498829605 -47.501157224305395 -1 1 0
15212 1 11.203335059080736 9.265104617090186 -48.08651297279321 0 1 1
7446 1 10.015085295643072 9.97305257448142 -49.71956170684683 0 -3 0
15013 1 15.245475636983219 6.3188424194328805 -51.13136270509094 1 -1 1
7183 1 16.16523761472517 10.226156225123207 -48.62517374002791 0 2 0
7427 1 17.292991107795864 5.466779036958072 -51.02264431481772 -1 0 0
7382 1 0.8764150494910783 7.565669156845235 -48.0221574865748 0 -1 0
10779 1 1.8852376974575358 6.26422271385419 -47.561781121210934 -1 -1 1
8437 1 2.2775373009033864 9.37694027448175 -50.71482096446779 0 2 0
11760 1 4.0945927109831555 9.360199556358966 -48.13118108872313 -1 0 0
11653 1 6.0886963093319775 9.426967497126439 -49.96265709919536 2 3 0
7696 1 9.018188227845549 7.85945246582809 -48.861893283926534 0 1 0
12399 1 16.99119414640557 7.32372620907213 -47.01438773142443 -1 0 0
8118 1 18.801161670337052 9.196013196977212 -50.04845855108544 -1 -2 0
12452 1 4.327576046273772 13.22631582857143 -50.816714406189206 3 2 0
11441 1 2.8740361592063617 10.668039725799346 -48.98387551128408 1 0 0
7921 1 4.095177650113741 9.354257746366647 -49.74224102213485 2 -1 0
7797 1 3.1213721270631654 8.38801411059754 -47.25158455490463 -1 2 0
15164 1 8.415152117053356 10.818865343352455 -52.415746898671394 2 -4 1
12194 1 8.735764475626976 8.352715895777177 -51.480902065155654 0 2 0
11794 1 13.9895000975766 10.49833211895267 -49.13666000684478 -1 0 0
10241 1 13.99364106143219 8.789784440319883 -50.81572899029495 -2 1 1
7433 1 14.836407108625702 10.779524173540652 -48.14570640731259 -4 0 0
10916 1 0.4339165919332716 12.102121825336914 -50.134604493796765 2 0 1
7742 1 18.730920064961524 10.552005704913148 -47.57969680973089 -1 2 0
11559 1 4.3835999727480655 14.28390505274662 -48.29651524294574 -1 -3 0
6970 1 4.58071457166733 12.38881270089561 -49.19808615919548 1 -1 0
14866 1 6.187190112477909 14.335457868654391 -49.66939717533786 0 1 1
10785 1 10.03782966587474 14.066406444020249 -49.52711788517077 0 2 1
15166 1 7.77988550617007 12.758661076257255 -48.00990342217199 -1 -1 1
7027 1 7.720455456830003 14.395596570935545 -49.186426974226436 -1 0 0
7734 1 12.372243599965964 10.760934078955655 -48.999777031235624 -1 0 0
15240 1 15.831744522003351 13.737101549777888 -45.11035494265395 0 0 1
10989 1 1.162536956582143 14.486265767812434 -49.68127401107078 1 -1 1
7026 1 1.5678431315121268 14.413952321706066 -47.85773909920367 0 0 0
14304 1 4.421513167881005 15.796815052006696 -49.17846164014376 1 -1 1
7146 1 8.299506223917344 16.140772336348657 -48.55701710643837 0 0 0
11655 1 10.491800649669898 15.922678406279331 -47.264673124771484 2 -1 0
7723 1 12.073116708629149 15.037442490298732 -50.44739999286538 -2 -1 0
10166 1 14.271675986767766 13.931766243241942 -49.21486278021066 -1 1 1
14776 1 18.068629666979383 11.80486278262785 -49.62627945053573 -1 1 1
6915 1 18.923677951343283 15.250832689194016 -49.68179617834589 -3 0 0
7523 1 3.8859587680350156 16.113616181883415 -50.902704385157435 2 0 0
14335 1 2.609464570696156 14.363993278304534 -48.378089462936764 1 0 1
12664 1 4.584943999776398 17.128453848657735 -47.08711122460692 0 0 0
11979 1 10.848003272033747 15.119358625927324 -50.57984546692285 1 0 0
10602 1 9.181484668139358 17.289388152733864 -49.24538191771018 -1 1 1
7795 1 12.283373661865253 17.02513920236898 -48.772118028534955 1 0 0
7676 1 17.572219049908064 17.50781642650808 -49.679620017206446 -1 0 0
11267 1 18.40854184257274 16.497307801820515 -48.59874577460548 1 -1 1
6917 1 0.599859340611872 0.033624940891746134 -47.320179048060744 -2 -1 0
15103 1 2.0361122936508798 18.83822120954532 -52.03432714938904 0 -1 1
11869 1 2.1741642865112016 18.707958504807532 -50.02938856167086 0 0 0
8050 1 6.52019194236051 19.0466354375328 -48.4146221902551 1 2 0
7167 1 6.1361139841785866 0.9112276977579071 -50.20707929634772 0 0 0
7298 1 5.677640526839532 18.044314866632224 -51.419373970363935 -1 -2 0
7035 1 12.146894386248723 0.5665402030890883 -48.16508563586231 -1 1 0
13856 1 13.026354504738396 0.283675527604657 -48.564900640210084 2 0 1
12747 1 13.279746809951629 18.94584144191298 -51.254166955793096 -2 1 0
7347 1 16.379504695016827 17.64173632759165 -47.49104002607542 -3 -1 0
11693 1 2.4562206347546636 1.1092091287182175 -45.809947379573806 1 -2 0
14014 1 9.860014946989818 1.8841904101776366 -48.982699529498376 1 0 1
12285 1 10.066377325756655 1.6946430730768682 -47.24118343890661 1 0 0
11961 1 3.1283427363114393 2.5743465568444526 -45.29344822806463 2 1 0
8203 1 5.237857090408932 3.129538289294141 -44.556262323280755 0 2 0
12306 1 8.230894217680676 3.1988077928589904 -48.172162641762185 -4 -1 0
15154 1 8.093401868916562 2.57816515563456 -44.97938481035884 1 0 1
12193 1 9.845151939463136 4.142722311634916 -46.7114480412167 -1 2 0
11607 1 14.099861914245482 3.095127265274226 -50.08349679502424 3 1 0
11941 1 18.02722084500145 2.7955494481941394 -46.018956147525905 -2 1 0
11060 1 1.3508566377848408 4.033466375545316 -48.18283746381345 0 0 1
7044 1 7.805423760860608 3.441658318812156 -46.58140982341703 -3 2 0
12955 1 13.274238810983276 8.639185007742695 -45.751206755925686 0 0 0
14108 1 16.20937185139982 3.739637686184303 -44.51642448973691 -1 -2 1
8731 1 17.104922214755245 5.061507381631421 -47.05341690957957 0 0 0
11671 1 3.066559809956147 8.764349766890124 -50.37334290630139 -1 1 0
14616 1 7.335944423458415 8.50043472332601 -48.24432160739105 1 -1 1
11031 1 12.543028934835284 4.469014007691391 -46.58430509052931 -1 0 1
7486 1 10.945110185396471 5.069860952638158 -46.466386564346195 0 1 0
12122 1 12.896773241008265 9.087226714419556 -50.39323590328942 -2 1 0
6973 1 14.361703531919582 6.1018872254732575 -47.05055731809428 2 -2 0
11427 1 12.608309702444231 8.389852985020505 -46.859133520089344 -3 2 1
12477 1 18.359242349845637 5.727169679088253 -48.670818179618855 1 1 0
11357 1 0.5923707956270198 5.257936121825198 -47.465241026378294 1 0 1
12418 1 4.114869241027699 6.916816388183435 -45.87665356538143 -1 1 0
7990 1 7.246146719942858 9.37133267767389 -47.695213823620755 -3 1 0
14690 1 12.235704778960676 10.057996197838552 -46.33852270922518 1 -2 1
11463 1 14.61550772120186 8.344478982176755 -46.34591794155797 -1 -2 0
10660 1 0.7253559762738058 11.491935145149975 -46.01904969013375 -1 -1 1
12174 1 5.216804844410493 10.316227665414052 -48.20331245649547 1 -3 0