LAMMPS data file via write_data, version 2 Aug 2023, timestep = 300000, units = lj

10080 atoms
2 atom types

0 19.048812623618392 xlo xhi
0 19.048812623618392 ylo yhi
-57.14643787085518 57.14643787085518 zlo zhi

Masses

1 1
2 1

Atoms # atomic

1 2 0 0 -14.374948730214186 0 0 0
2 2 0.7937005259840997 0.7937005259840997 -14.374948730214186 0 0 0
5 2 1.5874010519681994 0 -14.374948730214186 0 0 0
25 2 0 1.5874010519681994 -14.374948730214186 0 0 0
29 2 1.5874010519681994 1.5874010519681994 -14.374948730214186 0 0 0
6 2 2.381101577952299 0.7937005259840997 -14.374948730214186 0 0 0
9 2 3.1748021039363987 0 -14.374948730214186 0 0 0
33 2 3.1748021039363987 1.5874010519681994 -14.374948730214186 0 0 0
10 2 3.9685026299204984 0.7937005259840997 -14.374948730214186 0 0 0
13 2 4.762203155904598 0 -14.374948730214186 0 0 0
14 2 5.555903681888697 0.7937005259840997 -14.374948730214186 0 0 0
37 2 4.762203155904598 1.5874010519681994 -14.374948730214186 0 0 0
17 2 6.3496042078727974 0 -14.374948730214186 0 0 0
18 2 7.143304733856898 0.7937005259840997 -14.374948730214186 0 0 0
41 2 6.3496042078727974 1.5874010519681994 -14.374948730214186 0 0 0
21 2 7.937005259840997 0 -14.374948730214186 0 0 0
22 2 8.730705785825096 0.7937005259840997 -14.374948730214186 0 0 0
45 2 7.937005259840997 1.5874010519681994 -14.374948730214186 0 0 0
26 2 0.7937005259840997 2.381101577952299 -14.374948730214186 0 0 0
49 2 0 3.1748021039363987 -14.374948730214186 0 0 0
53 2 1.5874010519681994 3.1748021039363987 -14.374948730214186 0 0 0
30 2 2.381101577952299 2.381101577952299 -14.374948730214186 0 0 0
57 2 3.1748021039363987 3.1748021039363987 -14.374948730214186 0 0 0
34 2 3.9685026299204984 2.381101577952299 -14.374948730214186 0 0 0
38 2 5.555903681888697 2.381101577952299 -14.374948730214186 0 0 0
61 2 4.762203155904598 3.1748021039363987 -14.374948730214186 0 0 0
42 2 7.143304733856898 2.381101577952299 -14.374948730214186 0 0 0
65 2 6.3496042078727974 3.1748021039363987 -14.374948730214186 0 0 0
46 2 8.730705785825096 2.381101577952299 -14.374948730214186 0 0 0
69 2 7.937005259840997 3.1748021039363987 -14.374948730214186 0 0 0
50 2 0.7937005259840997 3.9685026299204984 -14.374948730214186 0 0 0
73 2 0 4.762203155904598 -14.374948730214186 0 0 0
74 2 0.7937005259840997 5.555903681888697 -14.374948730214186 0 0 0
77 2 1.5874010519681994 4.762203155904598 -14.374948730214186 0 0 0
54 2 2.381101577952299 3.9685026299204984 -14.374948730214186 0 0 0
78 2 2.381101577952299 5.555903681888697 -14.374948730214186 0 0 0
81 2 3.1748021039363987 4.762203155904598 -14.374948730214186 0 0 0
58 2 3.9685026299204984 3.9685026299204984 -14.374948730214186 0 0 0
62 2 5.555903681888697 3.9685026299204984 -14.374948730214186 0 0 0
82 2 3.9685026299204984 5.555903681888697 -14.374948730214186 0 0 0
85 2 4.762203155904598 4.762203155904598 -14.374948730214186 0 0 0
86 2 5.555903681888697 5.555903681888697 -14.374948730214186 0 0 0
66 2 7.143304733856898 3.9685026299204984 -14.374948730214186 0 0 0
89 2 6.3496042078727974 4.762203155904598 -14.374948730214186 0 0 0
90 2 7.143304733856898 5.555903681888697 -14.374948730214186 0 0 0
70 2 8.730705785825096 3.9685026299204984 -14.374948730214186 0 0 0
93 2 7.937005259840997 4.762203155904598 -14.374948730214186 0 0 0
94 2 8.730705785825096 5.555903681888697 -14.374948730214186 0 0 0
97 2 0 6.3496042078727974 -14.374948730214186 0 0 0
98 2 0.7937005259840997 7.143304733856898 -14.374948730214186 0 0 0
101 2 1.5874010519681994 6.3496042078727974 -14.374948730214186 0 0 0
102 2 2.381101577952299 7.143304733856898 -14.374948730214186 0 0 0
105 2 3.1748021039363987 6.3496042078727974 -14.374948730214186 0 0 0
106 2 3.9685026299204984 7.143304733856898 -14.374948730214186 0 0 0
109 2 4.762203155904598 6.3496042078727974 -14.374948730214186 0 0 0
110 2 5.555903681888697 7.143304733856898 -14.374948730214186 0 0 0
113 2 6.3496042078727974 6.3496042078727974 -14.374948730214186 0 0 0
114 2 7.143304733856898 7.143304733856898 -14.374948730214186 0 0 0
117 2 7.937005259840997 6.3496042078727974 -14.374948730214186 0 0 0
118 2 8.730705785825096 7.143304733856898 -14.374948730214186 0 0 0
121 2 0 7.937005259840997 -14.374948730214186 0 0 0
122 2 0.7937005259840997 8.730705785825096 -14.374948730214186 0 0 0
125 2 1.5874010519681994 7.937005259840997 -14.374948730214186 0 0 0
126 2 2.381101577952299 8.730705785825096 -14.374948730214186 0 0 0
129 2 3.1748021039363987 7.937005259840997 -14.374948730214186 0 0 0
130 2 3.9685026299204984 8.730705785825096 -14.374948730214186 0 0 0
133 2 4.762203155904598 7.937005259840997 -14.374948730214186 0 0 0
134 2 5.555903681888697 8.730705785825096 -14.374948730214186 0 0 0
137 2 6.3496042078727974 7.937005259840997 -14.374948730214186 0 0 0
138 2 7.143304733856898 8.730705785825096 -14.374948730214186 0 0 0
141 2 7.937005259840997 7.937005259840997 -14.374948730214186 0 0 0
142 2 8.730705785825096 8.730705785825096 -14.374948730214186 0 0 0
145 2 0 9.524406311809196 -14.374948730214186 0 0 0
146 2 0.7937005259840997 10.318106837793296 -14.374948730214186 0 0 0
149 2 1.5874010519681994 9.524406311809196 -14.374948730214186 0 0 0
169 2 0 11.111807363777395 -14.374948730214186 0 0 0
173 2 1.5874010519681994 11.111807363777395 -14.374948730214186 0 0 0
150 2 2.381101577952299 10.318106837793296 -14.374948730214186 0 0 0
153 2 3.1748021039363987 9.524406311809196 -14.374948730214186 0 0 0
177 2 3.1748021039363987 11.111807363777395 -14.374948730214186 0 0 0
154 2 3.9685026299204984 10.318106837793296 -14.374948730214186 0 0 0
157 2 4.762203155904598 9.524406311809196 -14.374948730214186 0 0 0
158 2 5.555903681888697 10.318106837793296 -14.374948730214186 0 0 0
181 2 4.762203155904598 11.111807363777395 -14.374948730214186 0 0 0
161 2 6.3496042078727974 9.524406311809196 -14.374948730214186 0 0 0
162 2 7.143304733856898 10.318106837793296 -14.374948730214186 0 0 0
185 2 6.3496042078727974 11.111807363777395 -14.374948730214186 0 0 0
165 2 7.937005259840997 9.524406311809196 -14.374948730214186 0 0 0
166 2 8.730705785825096 10.318106837793296 -14.374948730214186 0 0 0
189 2 7.937005259840997 11.111807363777395 -14.374948730214186 0 0 0
170 2 0.7937005259840997 11.905507889761495 -14.374948730214186 0 0 0
193 2 0 12.699208415745595 -14.374948730214186 0 0 0
197 2 1.5874010519681994 12.699208415745595 -14.374948730214186 0 0 0
174 2 2.381101577952299 11.905507889761495 -14.374948730214186 0 0 0
201 2 3.1748021039363987 12.699208415745595 -14.374948730214186 0 0 0
178 2 3.9685026299204984 11.905507889761495 -14.374948730214186 0 0 0
182 2 5.555903681888697 11.905507889761495 -14.374948730214186 0 0 0
205 2 4.762203155904598 12.699208415745595 -14.374948730214186 0 0 0
186 2 7.143304733856898 11.905507889761495 -14.374948730214186 0 0 0
209 2 6.3496042078727974 12.699208415745595 -14.374948730214186 0 0 0
190 2 8.730705785825096 11.905507889761495 -14.374948730214186 0 0 0
213 2 7.937005259840997 12.699208415745595 -14.374948730214186 0 0 0
194 2 0.7937005259840997 13.492908941729695 -14.374948730214186 0 0 0
217 2 0 14.286609467713795 -14.374948730214186 0 0 0
218 2 0.7937005259840997 15.080309993697893 -14.374948730214186 0 0 0
221 2 1.5874010519681994 14.286609467713795 -14.374948730214186 0 0 0
198 2 2.381101577952299 13.492908941729695 -14.374948730214186 0 0 0
222 2 2.381101577952299 15.080309993697893 -14.374948730214186 0 0 0
225 2 3.1748021039363987 14.286609467713795 -14.374948730214186 0 0 0
202 2 3.9685026299204984 13.492908941729695 -14.374948730214186 0 0 0
206 2 5.555903681888697 13.492908941729695 -14.374948730214186 0 0 0
226 2 3.9685026299204984 15.080309993697893 -14.374948730214186 0 0 0
229 2 4.762203155904598 14.286609467713795 -14.374948730214186 0 0 0
230 2 5.555903681888697 15.080309993697893 -14.374948730214186 0 0 0
210 2 7.143304733856898 13.492908941729695 -14.374948730214186 0 0 0
233 2 6.3496042078727974 14.286609467713795 -14.374948730214186 0 0 0
234 2 7.143304733856898 15.080309993697893 -14.374948730214186 0 0 0
214 2 8.730705785825096 13.492908941729695 -14.374948730214186 0 0 0
237 2 7.937005259840997 14.286609467713795 -14.374948730214186 0 0 0
238 2 8.730705785825096 15.080309993697893 -14.374948730214186 0 0 0
241 2 0 15.874010519681994 -14.374948730214186 0 0 0
242 2 0.7937005259840997 16.667711045666092 -14.374948730214186 0 0 0
245 2 1.5874010519681994 15.874010519681994 -14.374948730214186 0 0 0
246 2 2.381101577952299 16.667711045666092 -14.374948730214186 0 0 0
249 2 3.1748021039363987 15.874010519681994 -14.374948730214186 0 0 0
250 2 3.9685026299204984 16.667711045666092 -14.374948730214186 0 0 0
253 2 4.762203155904598 15.874010519681994 -14.374948730214186 0 0 0
254 2 5.555903681888697 16.667711045666092 -14.374948730214186 0 0 0
257 2 6.3496042078727974 15.874010519681994 -14.374948730214186 0 0 0
258 2 7.143304733856898 16.667711045666092 -14.374948730214186 0 0 0
261 2 7.937005259840997 15.874010519681994 -14.374948730214186 0 0 0
262 2 8.730705785825096 16.667711045666092 -14.374948730214186 0 0 0
265 2 0 17.461411571650192 -14.374948730214186 0 0 0
266 2 0.7937005259840997 18.255112097634292 -14.374948730214186 0 0 0
269 2 1.5874010519681994 17.461411571650192 -14.374948730214186 0 0 0
270 2 2.381101577952299 18.255112097634292 -14.374948730214186 0 0 0
273 2 3.1748021039363987 17.461411571650192 -14.374948730214186 0 0 0
274 2 3.9685026299204984 18.255112097634292 -14.374948730214186 0 0 0
277 2 4.762203155904598 17.461411571650192 -14.374948730214186 0 0 0
278 2 5.555903681888697 18.255112097634292 -14.374948730214186 0 0 0
281 2 6.3496042078727974 17.461411571650192 -14.374948730214186 0 0 0
282 2 7.143304733856898 18.255112097634292 -14.374948730214186 0 0 0
285 2 7.937005259840997 17.461411571650192 -14.374948730214186 0 0 0
286 2 8.730705785825096 18.255112097634292 -14.374948730214186 0 0 0
3 2 0.7937005259840997 0 -13.581248204230086 0 0 0
4 2 0 0.7937005259840997 -13.581248204230086 0 0 0
8 2 1.5874010519681994 0.7937005259840997 -13.581248204230086 0 0 0
27 2 0.7937005259840997 1.5874010519681994 -13.581248204230086 0 0 0
289 2 0 0 -12.787547678245986 0 0 0
290 2 0.7937005259840997 0.7937005259840997 -12.787547678245986 0 0 0
291 2 1.5874010519681994 0 -12.787547678245986 0 0 0
301 2 0 1.5874010519681994 -12.787547678245986 0 0 0
303 2 1.5874010519681994 1.5874010519681994 -12.787547678245986 0 0 0
7 2 2.381101577952299 0 -13.581248204230086 0 0 0
12 2 3.1748021039363987 0.7937005259840997 -13.581248204230086 0 0 0
31 2 2.381101577952299 1.5874010519681994 -13.581248204230086 0 0 0
292 2 2.381101577952299 0.7937005259840997 -12.787547678245986 0 0 0
293 2 3.1748021039363987 0 -12.787547678245986 0 0 0
305 2 3.1748021039363987 1.5874010519681994 -12.787547678245986 0 0 0
11 2 3.9685026299204984 0 -13.581248204230086 0 0 0
15 2 5.555903681888697 0 -13.581248204230086 0 0 0
16 2 4.762203155904598 0.7937005259840997 -13.581248204230086 0 0 0
35 2 3.9685026299204984 1.5874010519681994 -13.581248204230086 0 0 0
39 2 5.555903681888697 1.5874010519681994 -13.581248204230086 0 0 0
294 2 3.9685026299204984 0.7937005259840997 -12.787547678245986 0 0 0
295 2 4.762203155904598 0 -12.787547678245986 0 0 0
296 2 5.555903681888697 0.7937005259840997 -12.787547678245986 0 0 0
307 2 4.762203155904598 1.5874010519681994 -12.787547678245986 0 0 0
19 2 7.143304733856898 0 -13.581248204230086 0 0 0
20 2 6.3496042078727974 0.7937005259840997 -13.581248204230086 0 0 0
43 2 7.143304733856898 1.5874010519681994 -13.581248204230086 0 0 0
297 2 6.3496042078727974 0 -12.787547678245986 0 0 0
298 2 7.143304733856898 0.7937005259840997 -12.787547678245986 0 0 0
309 2 6.3496042078727974 1.5874010519681994 -12.787547678245986 0 0 0
23 2 8.730705785825096 0 -13.581248204230086 0 0 0
24 2 7.937005259840997 0.7937005259840997 -13.581248204230086 0 0 0
47 2 8.730705785825096 1.5874010519681994 -13.581248204230086 0 0 0
299 2 7.937005259840997 0 -12.787547678245986 0 0 0
300 2 8.730705785825096 0.7937005259840997 -12.787547678245986 0 0 0
311 2 7.937005259840997 1.5874010519681994 -12.787547678245986 0 0 0
28 2 0 2.381101577952299 -13.581248204230086 0 0 0
32 2 1.5874010519681994 2.381101577952299 -13.581248204230086 0 0 0
51 2 0.7937005259840997 3.1748021039363987 -13.581248204230086 0 0 0
302 2 0.7937005259840997 2.381101577952299 -12.787547678245986 0 0 0
313 2 0 3.1748021039363987 -12.787547678245986 0 0 0
315 2 1.5874010519681994 3.1748021039363987 -12.787547678245986 0 0 0
36 2 3.1748021039363987 2.381101577952299 -13.581248204230086 0 0 0
55 2 2.381101577952299 3.1748021039363987 -13.581248204230086 0 0 0
304 2 2.381101577952299 2.381101577952299 -12.787547678245986 0 0 0
317 2 3.1748021039363987 3.1748021039363987 -12.787547678245986 0 0 0
40 2 4.762203155904598 2.381101577952299 -13.581248204230086 0 0 0
59 2 3.9685026299204984 3.1748021039363987 -13.581248204230086 0 0 0
63 2 5.555903681888697 3.1748021039363987 -13.581248204230086 0 0 0
306 2 3.9685026299204984 2.381101577952299 -12.787547678245986 0 0 0
308 2 5.555903681888697 2.381101577952299 -12.787547678245986 0 0 0
319 2 4.762203155904598 3.1748021039363987 -12.787547678245986 0 0 0
44 2 6.3496042078727974 2.381101577952299 -13.581248204230086 0 0 0
67 2 7.143304733856898 3.1748021039363987 -13.581248204230086 0 0 0
310 2 7.143304733856898 2.381101577952299 -12.787547678245986 0 0 0
321 2 6.3496042078727974 3.1748021039363987 -12.787547678245986 0 0 0
48 2 7.937005259840997 2.381101577952299 -13.581248204230086 0 0 0
71 2 8.730705785825096 3.1748021039363987 -13.581248204230086 0 0 0
312 2 8.730705785825096 2.381101577952299 -12.787547678245986 0 0 0
323 2 7.937005259840997 3.1748021039363987 -12.787547678245986 0 0 0
52 2 0 3.9685026299204984 -13.581248204230086 0 0 0
56 2 1.5874010519681994 3.9685026299204984 -13.581248204230086 0 0 0
75 2 0.7937005259840997 4.762203155904598 -13.581248204230086 0 0 0
76 2 0 5.555903681888697 -13.581248204230086 0 0 0
80 2 1.5874010519681994 5.555903681888697 -13.581248204230086 0 0 0
314 2 0.7937005259840997 3.9685026299204984 -12.787547678245986 0 0 0
325 2 0 4.762203155904598 -12.787547678245986 0 0 0
326 2 0.7937005259840997 5.555903681888697 -12.787547678245986 0 0 0
327 2 1.5874010519681994 4.762203155904598 -12.787547678245986 0 0 0
60 2 3.1748021039363987 3.9685026299204984 -13.581248204230086 0 0 0
79 2 2.381101577952299 4.762203155904598 -13.581248204230086 0 0 0
84 2 3.1748021039363987 5.555903681888697 -13.581248204230086 0 0 0
316 2 2.381101577952299 3.9685026299204984 -12.787547678245986 0 0 0
328 2 2.381101577952299 5.555903681888697 -12.787547678245986 0 0 0
329 2 3.1748021039363987 4.762203155904598 -12.787547678245986 0 0 0
64 2 4.762203155904598 3.9685026299204984 -13.581248204230086 0 0 0
83 2 3.9685026299204984 4.762203155904598 -13.581248204230086 0 0 0
87 2 5.555903681888697 4.762203155904598 -13.581248204230086 0 0 0
88 2 4.762203155904598 5.555903681888697 -13.581248204230086 0 0 0
318 2 3.9685026299204984 3.9685026299204984 -12.787547678245986 0 0 0
320 2 5.555903681888697 3.9685026299204984 -12.787547678245986 0 0 0
330 2 3.9685026299204984 5.555903681888697 -12.787547678245986 0 0 0
331 2 4.762203155904598 4.762203155904598 -12.787547678245986 0 0 0
332 2 5.555903681888697 5.555903681888697 -12.787547678245986 0 0 0
68 2 6.3496042078727974 3.9685026299204984 -13.581248204230086 0 0 0
91 2 7.143304733856898 4.762203155904598 -13.581248204230086 0 0 0
92 2 6.3496042078727974 5.555903681888697 -13.581248204230086 0 0 0
322 2 7.143304733856898 3.9685026299204984 -12.787547678245986 0 0 0
333 2 6.3496042078727974 4.762203155904598 -12.787547678245986 0 0 0
334 2 7.143304733856898 5.555903681888697 -12.787547678245986 0 0 0
72 2 7.937005259840997 3.9685026299204984 -13.581248204230086 0 0 0
95 2 8.730705785825096 4.762203155904598 -13.581248204230086 0 0 0
96 2 7.937005259840997 5.555903681888697 -13.581248204230086 0 0 0
324 2 8.730705785825096 3.9685026299204984 -12.787547678245986 0 0 0
335 2 7.937005259840997 4.762203155904598 -12.787547678245986 0 0 0
336 2 8.730705785825096 5.555903681888697 -12.787547678245986 0 0 0
99 2 0.7937005259840997 6.3496042078727974 -13.581248204230086 0 0 0
100 2 0 7.143304733856898 -13.581248204230086 0 0 0
104 2 1.5874010519681994 7.143304733856898 -13.581248204230086 0 0 0
337 2 0 6.3496042078727974 -12.787547678245986 0 0 0
338 2 0.7937005259840997 7.143304733856898 -12.787547678245986 0 0 0
339 2 1.5874010519681994 6.3496042078727974 -12.787547678245986 0 0 0
103 2 2.381101577952299 6.3496042078727974 -13.581248204230086 0 0 0
108 2 3.1748021039363987 7.143304733856898 -13.581248204230086 0 0 0
340 2 2.381101577952299 7.143304733856898 -12.787547678245986 0 0 0
341 2 3.1748021039363987 6.3496042078727974 -12.787547678245986 0 0 0
107 2 3.9685026299204984 6.3496042078727974 -13.581248204230086 0 0 0
111 2 5.555903681888697 6.3496042078727974 -13.581248204230086 0 0 0
112 2 4.762203155904598 7.143304733856898 -13.581248204230086 0 0 0
342 2 3.9685026299204984 7.143304733856898 -12.787547678245986 0 0 0
343 2 4.762203155904598 6.3496042078727974 -12.787547678245986 0 0 0
344 2 5.555903681888697 7.143304733856898 -12.787547678245986 0 0 0
115 2 7.143304733856898 6.3496042078727974 -13.581248204230086 0 0 0
116 2 6.3496042078727974 7.143304733856898 -13.581248204230086 0 0 0
345 2 6.3496042078727974 6.3496042078727974 -12.787547678245986 0 0 0
346 2 7.143304733856898 7.143304733856898 -12.787547678245986 0 0 0
119 2 8.730705785825096 6.3496042078727974 -13.581248204230086 0 0 0
120 2 7.937005259840997 7.143304733856898 -13.581248204230086 0 0 0
347 2 7.937005259840997 6.3496042078727974 -12.787547678245986 0 0 0
348 2 8.730705785825096 7.143304733856898 -12.787547678245986 0 0 0
123 2 0.7937005259840997 7.937005259840997 -13.581248204230086 0 0 0
124 2 0 8.730705785825096 -13.581248204230086 0 0 0
128 2 1.5874010519681994 8.730705785825096 -13.581248204230086 0 0 0
349 2 0 7.937005259840997 -12.787547678245986 0 0 0
350 2 0.7937005259840997 8.730705785825096 -12.787547678245986 0 0 0
351 2 1.5874010519681994 7.937005259840997 -12.787547678245986 0 0 0
127 2 2.381101577952299 7.937005259840997 -13.581248204230086 0 0 0
132 2 3.1748021039363987 8.730705785825096 -13.581248204230086 0 0 0
352 2 2.381101577952299 8.730705785825096 -12.787547678245986 0 0 0
353 2 3.1748021039363987 7.937005259840997 -12.787547678245986 0 0 0
131 2 3.9685026299204984 7.937005259840997 -13.581248204230086 0 0 0
135 2 5.555903681888697 7.937005259840997 -13.581248204230086 0 0 0
136 2 4.762203155904598 8.730705785825096 -13.581248204230086 0 0 0
354 2 3.9685026299204984 8.730705785825096 -12.787547678245986 0 0 0
355 2 4.762203155904598 7.937005259840997 -12.787547678245986 0 0 0
356 2 5.555903681888697 8.730705785825096 -12.787547678245986 0 0 0
139 2 7.143304733856898 7.937005259840997 -13.581248204230086 0 0 0
140 2 6.3496042078727974 8.730705785825096 -13.581248204230086 0 0 0
357 2 6.3496042078727974 7.937005259840997 -12.787547678245986 0 0 0
358 2 7.143304733856898 8.730705785825096 -12.787547678245986 0 0 0
143 2 8.730705785825096 7.937005259840997 -13.581248204230086 0 0 0
144 2 7.937005259840997 8.730705785825096 -13.581248204230086 0 0 0
359 2 7.937005259840997 7.937005259840997 -12.787547678245986 0 0 0
360 2 8.730705785825096 8.730705785825096 -12.787547678245986 0 0 0
147 2 0.7937005259840997 9.524406311809196 -13.581248204230086 0 0 0
148 2 0 10.318106837793296 -13.581248204230086 0 0 0
152 2 1.5874010519681994 10.318106837793296 -13.581248204230086 0 0 0
171 2 0.7937005259840997 11.111807363777395 -13.581248204230086 0 0 0
361 2 0 9.524406311809196 -12.787547678245986 0 0 0
362 2 0.7937005259840997 10.318106837793296 -12.787547678245986 0 0 0
363 2 1.5874010519681994 9.524406311809196 -12.787547678245986 0 0 0
373 2 0 11.111807363777395 -12.787547678245986 0 0 0
375 2 1.5874010519681994 11.111807363777395 -12.787547678245986 0 0 0
151 2 2.381101577952299 9.524406311809196 -13.581248204230086 0 0 0
156 2 3.1748021039363987 10.318106837793296 -13.581248204230086 0 0 0
175 2 2.381101577952299 11.111807363777395 -13.581248204230086 0 0 0
364 2 2.381101577952299 10.318106837793296 -12.787547678245986 0 0 0
365 2 3.1748021039363987 9.524406311809196 -12.787547678245986 0 0 0
377 2 3.1748021039363987 11.111807363777395 -12.787547678245986 0 0 0
155 2 3.9685026299204984 9.524406311809196 -13.581248204230086 0 0 0
159 2 5.555903681888697 9.524406311809196 -13.581248204230086 0 0 0
160 2 4.762203155904598 10.318106837793296 -13.581248204230086 0 0 0
179 2 3.9685026299204984 11.111807363777395 -13.581248204230086 0 0 0
183 2 5.555903681888697 11.111807363777395 -13.581248204230086 0 0 0
366 2 3.9685026299204984 10.318106837793296 -12.787547678245986 0 0 0
367 2 4.762203155904598 9.524406311809196 -12.787547678245986 0 0 0
368 2 5.555903681888697 10.318106837793296 -12.787547678245986 0 0 0
379 2 4.762203155904598 11.111807363777395 -12.787547678245986 0 0 0
163 2 7.143304733856898 9.524406311809196 -13.581248204230086 0 0 0
164 2 6.3496042078727974 10.318106837793296 -13.581248204230086 0 0 0
187 2 7.143304733856898 11.111807363777395 -13.581248204230086 0 0 0
369 2 6.3496042078727974 9.524406311809196 -12.787547678245986 0 0 0
370 2 7.143304733856898 10.318106837793296 -12.787547678245986 0 0 0
381 2 6.3496042078727974 11.111807363777395 -12.787547678245986 0 0 0
167 2 8.730705785825096 9.524406311809196 -13.581248204230086 0 0 0
168 2 7.937005259840997 10.318106837793296 -13.581248204230086 0 0 0
191 2 8.730705785825096 11.111807363777395 -13.581248204230086 0 0 0
371 2 7.937005259840997 9.524406311809196 -12.787547678245986 0 0 0
372 2 8.730705785825096 10.318106837793296 -12.787547678245986 0 0 0
383 2 7.937005259840997 11.111807363777395 -12.787547678245986 0 0 0
172 2 0 11.905507889761495 -13.581248204230086 0 0 0
176 2 1.5874010519681994 11.905507889761495 -13.581248204230086 0 0 0
195 2 0.7937005259840997 12.699208415745595 -13.581248204230086 0 0 0
374 2 0.7937005259840997 11.905507889761495 -12.787547678245986 0 0 0
385 2 0 12.699208415745595 -12.787547678245986 0 0 0
387 2 1.5874010519681994 12.699208415745595 -12.787547678245986 0 0 0
180 2 3.1748021039363987 11.905507889761495 -13.581248204230086 0 0 0
199 2 2.381101577952299 12.699208415745595 -13.581248204230086 0 0 0
376 2 2.381101577952299 11.905507889761495 -12.787547678245986 0 0 0
389 2 3.1748021039363987 12.699208415745595 -12.787547678245986 0 0 0
184 2 4.762203155904598 11.905507889761495 -13.581248204230086 0 0 0
203 2 3.9685026299204984 12.699208415745595 -13.581248204230086 0 0 0
207 2 5.555903681888697 12.699208415745595 -13.581248204230086 0 0 0
378 2 3.9685026299204984 11.905507889761495 -12.787547678245986 0 0 0
380 2 5.555903681888697 11.905507889761495 -12.787547678245986 0 0 0
391 2 4.762203155904598 12.699208415745595 -12.787547678245986 0 0 0
188 2 6.3496042078727974 11.905507889761495 -13.581248204230086 0 0 0
211 2 7.143304733856898 12.699208415745595 -13.581248204230086 0 0 0
382 2 7.143304733856898 11.905507889761495 -12.787547678245986 0 0 0
393 2 6.3496042078727974 12.699208415745595 -12.787547678245986 0 0 0
192 2 7.937005259840997 11.905507889761495 -13.581248204230086 0 0 0
215 2 8.730705785825096 12.699208415745595 -13.581248204230086 0 0 0
384 2 8.730705785825096 11.905507889761495 -12.787547678245986 0 0 0
395 2 7.937005259840997 12.699208415745595 -12.787547678245986 0 0 0
196 2 0 13.492908941729695 -13.581248204230086 0 0 0
200 2 1.5874010519681994 13.492908941729695 -13.581248204230086 0 0 0
219 2 0.7937005259840997 14.286609467713795 -13.581248204230086 0 0 0
220 2 0 15.080309993697893 -13.581248204230086 0 0 0
224 2 1.5874010519681994 15.080309993697893 -13.581248204230086 0 0 0
386 2 0.7937005259840997 13.492908941729695 -12.787547678245986 0 0 0
397 2 0 14.286609467713795 -12.787547678245986 0 0 0
398 2 0.7937005259840997 15.080309993697893 -12.787547678245986 0 0 0
399 2 1.5874010519681994 14.286609467713795 -12.787547678245986 0 0 0
204 2 3.1748021039363987 13.492908941729695 -13.581248204230086 0 0 0
223 2 2.381101577952299 14.286609467713795 -13.581248204230086 0 0 0
228 2 3.1748021039363987 15.080309993697893 -13.581248204230086 0 0 0
388 2 2.381101577952299 13.492908941729695 -12.787547678245986 0 0 0
400 2 2.381101577952299 15.080309993697893 -12.787547678245986 0 0 0
401 2 3.1748021039363987 14.286609467713795 -12.787547678245986 0 0 0
208 2 4.762203155904598 13.492908941729695 -13.581248204230086 0 0 0
227 2 3.9685026299204984 14.286609467713795 -13.581248204230086 0 0 0
231 2 5.555903681888697 14.286609467713795 -13.581248204230086 0 0 0
232 2 4.762203155904598 15.080309993697893 -13.581248204230086 0 0 0
390 2 3.9685026299204984 13.492908941729695 -12.787547678245986 0 0 0
392 2 5.555903681888697 13.492908941729695 -12.787547678245986 0 0 0
402 2 3.9685026299204984 15.080309993697893 -12.787547678245986 0 0 0
403 2 4.762203155904598 14.286609467713795 -12.787547678245986 0 0 0
404 2 5.555903681888697 15.080309993697893 -12.787547678245986 0 0 0
212 2 6.3496042078727974 13.492908941729695 -13.581248204230086 0 0 0
235 2 7.143304733856898 14.286609467713795 -13.581248204230086 0 0 0
236 2 6.3496042078727974 15.080309993697893 -13.581248204230086 0 0 0
394 2 7.143304733856898 13.492908941729695 -12.787547678245986 0 0 0
405 2 6.3496042078727974 14.286609467713795 -12.787547678245986 0 0 0
406 2 7.143304733856898 15.080309993697893 -12.787547678245986 0 0 0
216 2 7.937005259840997 13.492908941729695 -13.581248204230086 0 0 0
239 2 8.730705785825096 14.286609467713795 -13.581248204230086 0 0 0
240 2 7.937005259840997 15.080309993697893 -13.581248204230086 0 0 0
396 2 8.730705785825096 13.492908941729695 -12.787547678245986 0 0 0
407 2 7.937005259840997 14.286609467713795 -12.787547678245986 0 0 0
408 2 8.730705785825096 15.080309993697893 -12.787547678245986 0 0 0
243 2 0.7937005259840997 15.874010519681994 -13.581248204230086 0 0 0
244 2 0 16.667711045666092 -13.581248204230086 0 0 0
248 2 1.5874010519681994 16.667711045666092 -13.581248204230086 0 0 0
409 2 0 15.874010519681994 -12.787547678245986 0 0 0
410 2 0.7937005259840997 16.667711045666092 -12.787547678245986 0 0 0
411 2 1.5874010519681994 15.874010519681994 -12.787547678245986 0 0 0
247 2 2.381101577952299 15.874010519681994 -13.581248204230086 0 0 0
252 2 3.1748021039363987 16.667711045666092 -13.581248204230086 0 0 0
412 2 2.381101577952299 16.667711045666092 -12.787547678245986 0 0 0
413 2 3.1748021039363987 15.874010519681994 -12.787547678245986 0 0 0
251 2 3.9685026299204984 15.874010519681994 -13.581248204230086 0 0 0
255 2 5.555903681888697 15.874010519681994 -13.581248204230086 0 0 0
256 2 4.762203155904598 16.667711045666092 -13.581248204230086 0 0 0
414 2 3.9685026299204984 16.667711045666092 -12.787547678245986 0 0 0
415 2 4.762203155904598 15.874010519681994 -12.787547678245986 0 0 0
416 2 5.555903681888697 16.667711045666092 -12.787547678245986 0 0 0
259 2 7.143304733856898 15.874010519681994 -13.581248204230086 0 0 0
260 2 6.3496042078727974 16.667711045666092 -13.581248204230086 0 0 0
417 2 6.3496042078727974 15.874010519681994 -12.787547678245986 0 0 0
418 2 7.143304733856898 16.667711045666092 -12.787547678245986 0 0 0
263 2 8.730705785825096 15.874010519681994 -13.581248204230086 0 0 0
264 2 7.937005259840997 16.667711045666092 -13.581248204230086 0 0 0
419 2 7.937005259840997 15.874010519681994 -12.787547678245986 0 0 0
420 2 8.730705785825096 16.667711045666092 -12.787547678245986 0 0 0
267 2 0.7937005259840997 17.461411571650192 -13.581248204230086 0 0 0
268 2 0 18.255112097634292 -13.581248204230086 0 0 0
272 2 1.5874010519681994 18.255112097634292 -13.581248204230086 0 0 0
421 2 0 17.461411571650192 -12.787547678245986 0 0 0
422 2 0.7937005259840997 18.255112097634292 -12.787547678245986 0 0 0
423 2 1.5874010519681994 17.461411571650192 -12.787547678245986 0 0 0
271 2 2.381101577952299 17.461411571650192 -13.581248204230086 0 0 0
276 2 3.1748021039363987 18.255112097634292 -13.581248204230086 0 0 0
424 2 2.381101577952299 18.255112097634292 -12.787547678245986 0 0 0
425 2 3.1748021039363987 17.461411571650192 -12.787547678245986 0 0 0
275 2 3.9685026299204984 17.461411571650192 -13.581248204230086 0 0 0
279 2 5.555903681888697 17.461411571650192 -13.581248204230086 0 0 0
280 2 4.762203155904598 18.255112097634292 -13.581248204230086 0 0 0
426 2 3.9685026299204984 18.255112097634292 -12.787547678245986 0 0 0
427 2 4.762203155904598 17.461411571650192 -12.787547678245986 0 0 0
428 2 5.555903681888697 18.255112097634292 -12.787547678245986 0 0 0
283 2 7.143304733856898 17.461411571650192 -13.581248204230086 0 0 0
284 2 6.3496042078727974 18.255112097634292 -13.581248204230086 0 0 0
429 2 6.3496042078727974 17.461411571650192 -12.787547678245986 0 0 0
430 2 7.143304733856898 18.255112097634292 -12.787547678245986 0 0 0
287 2 8.730705785825096 17.461411571650192 -13.581248204230086 0 0 0
288 2 7.937005259840997 18.255112097634292 -13.581248204230086 0 0 0
431 2 7.937005259840997 17.461411571650192 -12.787547678245986 0 0 0
432 2 8.730705785825096 18.255112097634292 -12.787547678245986 0 0 0
1730 1 1.4836527529721668 0.7358035460511819 -11.983262273202381 0 0 0
1754 1 0.7961434690969811 1.615630537170399 -12.123088660932003 0 0 0
2284 1 1.6245939559491025 1.5915355925701307 -11.405324327608145 0 1 0
2506 1 0.7510761322955719 0.9219880646287891 -11.312375452602888 0 1 0
1760 1 1.4638022901651897 0.07578158317072366 -11.187800226330252 0 0 0
1733 1 0.6700414216374152 0.09696002017120264 -12.018744014295363 0 0 0
5926 1 0.05527464430034357 0.8820914453553287 -12.091069990076312 1 0 0
1757 1 2.406571568124097 1.5868542440304088 -12.062948578917327 0 0 0
1734 1 3.1416887294945806 0.8401519327326971 -12.131934130695448 0 0 0
1735 1 3.264094867120742 1.5047198585871273 -11.293646397208073 0 0 0
1737 1 2.2327142375806432 0.8025420447486498 -11.290330758794589 0 0 0
1998 1 2.407244223127798 0.0006181593843772688 -12.119317254795414 0 1 0