LAMMPS data file via write_data, version 2 Aug 2023, timestep = 100000, units = lj

8784 atoms
2 atom types

0 19.048812623618392 xlo xhi
0 19.048812623618392 ylo yhi
-57.14643787085518 57.14643787085518 zlo zhi

Masses

1 1
2 1

Atoms # atomic

1 2 0 0 -16.172946735756344 0 0 0
2 2 1.5874010519681994 1.5874010519681994 -16.172946735756344 0 0 0
5 2 3.1748021039363987 0 -16.172946735756344 0 0 0
6 2 4.762203155904598 1.5874010519681994 -16.172946735756344 0 0 0
9 2 6.3496042078727974 0 -16.172946735756344 0 0 0
10 2 7.937005259840997 1.5874010519681994 -16.172946735756344 0 0 0
13 2 0 3.1748021039363987 -16.172946735756344 0 0 0
17 2 3.1748021039363987 3.1748021039363987 -16.172946735756344 0 0 0
21 2 6.3496042078727974 3.1748021039363987 -16.172946735756344 0 0 0
14 2 1.5874010519681994 4.762203155904598 -16.172946735756344 0 0 0
25 2 0 6.3496042078727974 -16.172946735756344 0 0 0
29 2 3.1748021039363987 6.3496042078727974 -16.172946735756344 0 0 0
18 2 4.762203155904598 4.762203155904598 -16.172946735756344 0 0 0
33 2 6.3496042078727974 6.3496042078727974 -16.172946735756344 0 0 0
22 2 7.937005259840997 4.762203155904598 -16.172946735756344 0 0 0
26 2 1.5874010519681994 7.937005259840997 -16.172946735756344 0 0 0
30 2 4.762203155904598 7.937005259840997 -16.172946735756344 0 0 0
34 2 7.937005259840997 7.937005259840997 -16.172946735756344 0 0 0
37 2 0 9.524406311809196 -16.172946735756344 0 0 0
38 2 1.5874010519681994 11.111807363777395 -16.172946735756344 0 0 0
41 2 3.1748021039363987 9.524406311809196 -16.172946735756344 0 0 0
42 2 4.762203155904598 11.111807363777395 -16.172946735756344 0 0 0
45 2 6.3496042078727974 9.524406311809196 -16.172946735756344 0 0 0
46 2 7.937005259840997 11.111807363777395 -16.172946735756344 0 0 0
49 2 0 12.699208415745595 -16.172946735756344 0 0 0
53 2 3.1748021039363987 12.699208415745595 -16.172946735756344 0 0 0
57 2 6.3496042078727974 12.699208415745595 -16.172946735756344 0 0 0
50 2 1.5874010519681994 14.286609467713795 -16.172946735756344 0 0 0
61 2 0 15.874010519681994 -16.172946735756344 0 0 0
65 2 3.1748021039363987 15.874010519681994 -16.172946735756344 0 0 0
54 2 4.762203155904598 14.286609467713795 -16.172946735756344 0 0 0
69 2 6.3496042078727974 15.874010519681994 -16.172946735756344 0 0 0
58 2 7.937005259840997 14.286609467713795 -16.172946735756344 0 0 0
62 2 1.5874010519681994 17.461411571650192 -16.172946735756344 0 0 0
66 2 4.762203155904598 17.461411571650192 -16.172946735756344 0 0 0
70 2 7.937005259840997 17.461411571650192 -16.172946735756344 0 0 0
3 2 1.5874010519681994 0 -14.585545683787874 0 0 0
4 2 0 1.5874010519681994 -14.585545683787874 0 0 0
8 2 3.1748021039363987 1.5874010519681994 -14.585545683787874 0 0 0
7 2 4.762203155904598 0 -14.585545683787874 0 0 0
12 2 6.3496042078727974 1.5874010519681994 -14.585545683787874 0 0 0
11 2 7.937005259840997 0 -14.585545683787874 0 0 0
15 2 1.5874010519681994 3.1748021039363987 -14.585545683787874 0 0 0
19 2 4.762203155904598 3.1748021039363987 -14.585545683787874 0 0 0
23 2 7.937005259840997 3.1748021039363987 -14.585545683787874 0 0 0
16 2 0 4.762203155904598 -14.585545683787874 0 0 0
27 2 1.5874010519681994 6.3496042078727974 -14.585545683787874 0 0 0
20 2 3.1748021039363987 4.762203155904598 -14.585545683787874 0 0 0
24 2 6.3496042078727974 4.762203155904598 -14.585545683787874 0 0 0
31 2 4.762203155904598 6.3496042078727974 -14.585545683787874 0 0 0
35 2 7.937005259840997 6.3496042078727974 -14.585545683787874 0 0 0
28 2 0 7.937005259840997 -14.585545683787874 0 0 0
32 2 3.1748021039363987 7.937005259840997 -14.585545683787874 0 0 0
36 2 6.3496042078727974 7.937005259840997 -14.585545683787874 0 0 0
39 2 1.5874010519681994 9.524406311809196 -14.585545683787874 0 0 0
40 2 0 11.111807363777395 -14.585545683787874 0 0 0
44 2 3.1748021039363987 11.111807363777395 -14.585545683787874 0 0 0
43 2 4.762203155904598 9.524406311809196 -14.585545683787874 0 0 0
48 2 6.3496042078727974 11.111807363777395 -14.585545683787874 0 0 0
47 2 7.937005259840997 9.524406311809196 -14.585545683787874 0 0 0
51 2 1.5874010519681994 12.699208415745595 -14.585545683787874 0 0 0
55 2 4.762203155904598 12.699208415745595 -14.585545683787874 0 0 0
59 2 7.937005259840997 12.699208415745595 -14.585545683787874 0 0 0
52 2 0 14.286609467713795 -14.585545683787874 0 0 0
63 2 1.5874010519681994 15.874010519681994 -14.585545683787874 0 0 0
56 2 3.1748021039363987 14.286609467713795 -14.585545683787874 0 0 0
60 2 6.3496042078727974 14.286609467713795 -14.585545683787874 0 0 0
67 2 4.762203155904598 15.874010519681994 -14.585545683787874 0 0 0
71 2 7.937005259840997 15.874010519681994 -14.585545683787874 0 0 0
64 2 0 17.461411571650192 -14.585545683787874 0 0 0
68 2 3.1748021039363987 17.461411571650192 -14.585545683787874 0 0 0
72 2 6.3496042078727974 17.461411571650192 -14.585545683787874 0 0 0
73 2 0 0 -12.998144631819667 0 0 0
74 2 1.5874010519681994 1.5874010519681994 -12.998144631819667 0 0 0
483 1 0.35290485368120317 1.904521019128505 -12.140883302231067 0 0 0
1016 1 2.173223023366362 0.5395742608825751 -11.972843094571855 0 0 0
972 1 1.4763999643568804 1.0346552284939423 -11.447315901421717 0 1 0
712 1 0.46751192291649085 0.9183111248795168 -11.756437606843933 0 1 0
434 1 0.017772494344457036 1.5467561696674943 -13.078398653612524 0 0 0
75 2 3.1748021039363987 0 -12.998144631819667 0 0 0
442 1 3.225820232712661 1.5788907189553079 -12.913982756349004 0 0 0
999 1 4.019036404033386 1.5455774165036595 -11.650795078660519 0 1 0
4987 1 3.2267061874556306 2.174969471381096 -11.543324720063922 1 0 0
1000 1 4.736938747199333 0.814161372164272 -11.692504689445837 0 1 0
443 1 3.064226899196408 1.2028813506417422 -11.985809389507747 0 0 0
76 2 4.762203155904598 1.5874010519681994 -12.998144631819667 0 0 0
77 2 6.3496042078727974 0 -12.998144631819667 0 0 0
446 1 6.344616522168657 1.5680421143443874 -13.042431881512362 0 0 0
470 1 5.9704038788128955 1.9526363273757608 -12.094573082351676 0 0 0
718 1 6.685744374646224 1.2509658434232618 -12.037251860133486 0 1 0
723 1 5.751960556747642 0.9452637045161382 -11.794631278548028 0 0 0
1269 1 6.67083340910275 18.951630600976955 -11.256917819403009 0 0 0
456 1 7.402390221642264 0.530314792085649 -11.8821067896178 0 0 0
78 2 7.937005259840997 1.5874010519681994 -12.998144631819667 0 0 0
4657 1 9.290761173073763 1.44845155127231 -12.118716824762755 0 0 0
453 1 7.986988840065377 0.02426860114373497 -13.063575099605146 0 0 0
477 1 7.326309598911741 1.6121756658369655 -11.304724383916978 0 0 0
1278 1 2.273160779770899 2.4743636143453918 -11.998090739385736 0 1 0
468 1 1.3241170056554479 2.8342169845584793 -12.016658318370428 0 0 0
79 2 0 3.1748021039363987 -12.998144631819667 0 0 0
485 1 1.6210141679820342 3.2241624336658057 -12.980162641941273 0 0 0
4751 1 2.3046099325632423 3.711437284524731 -11.901903529853032 1 0 0
4699 1 1.0491489205123918 3.8441530590747086 -11.374132979919228 1 0 0
4943 1 0.5853621348194465 2.9358440768846723 -11.300722858190856 1 0 0
511 1 2.084295140906092 4.673074816447832 -11.572908982306114 0 0 0
711 1 4.143199226876679 2.512953924027812 -11.967488572492824 0 1 0
81 2 3.1748021039363987 3.1748021039363987 -12.998144631819667 0 0 0
751 1 4.025008240524565 3.994030082125013 -11.874568080717538 0 0 0
494 1 4.68672469912362 3.2055367867778193 -12.788111712601937 0 0 0
722 1 3.081276262357463 4.37430213224243 -11.4679374079304 0 0 0
784 1 4.903768486546401 4.725175866026547 -11.445214137246033 0 0 0
773 1 5.392543106781315 3.7257775628331724 -11.947546211263967 0 0 0
730 1 5.142689196276255 2.6812329376868806 -12.039588059777023 0 0 0
83 2 6.3496042078727974 3.1748021039363987 -12.998144631819667 0 0 0
593 1 6.588506810768184 4.353328216506466 -12.074389513464418 0 0 0
1042 1 6.298170465213823 3.4562993909285233 -11.517209355544862 0 0 0
491 1 7.329286393199369 2.5679018022731803 -11.930028882437526 0 0 0
787 1 8.509558314161469 2.8872634423350982 -11.932773997803112 0 0 0
467 1 8.966289764363957 4.086076898199633 -11.918490868282303 0 0 0
501 1 7.997003589847134 3.2192913117146067 -12.902071313364127 0 0 0
450 1 7.314493747919752 3.665068644515562 -11.958276425011734 0 0 0
216 2 7.937005259840997 17.461411571650192 16.175777053606645 0 0 0
80 2 1.5874010519681994 4.762203155904598 -12.998144631819667 0 0 0
85 2 0 6.3496042078727974 -12.998144631819667 0 0 0
533 1 1.6361309669130504 6.288387375783512 -12.994422988845436 0 0 0
529 1 1.5464288880612198 6.757834437014634 -12.008863585213431 0 0 0
1082 1 0.4760396897766062 4.625424111339707 -11.977698379316676 0 0 0
459 1 0.9915952131089563 5.617472492096512 -11.870665125936872 0 0 0
531 1 2.0308538915901733 5.864496871395459 -12.096783439975534 0 0 0
818 1 2.54815886726692 6.920684946734676 -11.712718010015802 0 0 0
844 1 0.5890404800373892 6.438007363503185 -11.445125577637802 0 0 0
214 2 4.762203155904598 17.461411571650192 16.175777053606645 0 0 0
510 1 3.1202946934766995 4.788938497752371 -12.987665061097376 0 0 0
538 1 2.8548602179265403 5.2766700965560815 -11.980448688920854 0 0 0
87 2 3.1748021039363987 6.3496042078727974 -12.998144631819667 0 0 0
823 1 4.417105330443832 6.68286723815432 -12.16275340527619 0 0 0
826 1 3.9765416818056187 5.502003404994879 -11.900540986223879 0 0 0
798 1 3.722735027663261 7.3950772449998965 -11.899696262689565 0 0 0
518 1 6.460002703157541 4.690559904295881 -13.094176020774261 0 0 0
565 1 4.719817218220408 6.317994414166611 -13.094632729388717 0 0 0
830 1 5.168366621310063 5.812894876815093 -11.89491061851932 0 0 0
833 1 5.803628211351054 5.031252523306322 -11.84945595010187 0 0 0
82 2 4.762203155904598 4.762203155904598 -12.998144631819667 0 0 0
89 2 6.3496042078727974 6.3496042078727974 -12.998144631819667 0 0 0
564 1 6.165613551385746 5.965313232287013 -11.483729837988154 0 0 0
1145 1 6.921390640861286 5.322651020209428 -12.014635026049815 0 0 0
851 1 7.284256821243611 7.177899876283504 -11.793117603974386 0 0 0
84 2 7.937005259840997 4.762203155904598 -12.998144631819667 0 0 0
549 1 7.923277238575424 6.302459809545542 -12.876283489846246 0 0 0
537 1 8.615441327776884 6.182953936399873 -11.636375388779182 0 0 0
599 1 9.192499415231245 5.24586035633317 -11.98011874907574 0 0 0
855 1 7.672570862363902 6.031381135229261 -11.938042016548254 0 0 0
4681 1 9.492099635469463 4.724323657749381 -13.039965004342497 0 0 0
86 2 1.5874010519681994 7.937005259840997 -12.998144631819667 0 0 0
5063 1 2.1798320749195037 8.970673897416706 -11.952336916317547 1 0 0
1131 1 0.34285044329485564 8.337000903570809 -12.115449773010395 0 0 0
5038 1 0.8517666624185728 7.476371394596752 -11.523036769246051 1 0 0
581 1 1.541520003423695 9.507907487836107 -13.064473219120295 0 0 0
4822 1 1.1674626218325703 9.21695214319916 -12.085389247128171 1 0 0
5303 1 2.784155345708169 8.108415093808503 -11.899656499059633 1 0 0
561 1 3.1290151685362906 7.921489850097071 -12.81200661694072 0 0 0
530 1 4.039404939633464 8.85843085813093 -11.902046704594236 0 0 0
493 1 4.470836395114578 8.1512345325083 -11.346676427578917 0 0 0
5064 1 3.4650053446668574 8.434272369629229 -11.191066824574213 1 0 0
572 1 5.970552152070083 7.192800430477392 -11.791717348519937 0 0 0
589 1 4.838233367014438 9.4618490319374 -13.104542104278753 0 0 0
806 1 6.686492146896445 8.026066029042202 -11.93271149661447 0 0 0
88 2 4.762203155904598 7.937005259840997 -12.998144631819667 0 0 0
542 1 6.28840006247829 7.9851848708602375 -12.976971542646794 0 0 0
539 1 6.058040210825204 8.946158585679314 -11.527269440786968 0 0 0
5299 1 5.443989213645586 8.008195760720998 -11.477660325472849 1 0 0
1134 1 7.383019763957478 8.944321914000522 -11.889512049630364 0 0 0
90 2 7.937005259840997 7.937005259840997 -12.998144631819667 0 0 0
570 1 9.15181983091543 7.538120932920645 -12.167341638814507 0 0 0
575 1 8.702848982233888 8.28642013692482 -11.602764242787204 0 0 0
569 1 8.343876485424243 9.168474562713632 -12.14797464865633 0 0 0
597 1 7.98264677824526 9.593752015992758 -13.067576812729664 0 0 0
91 2 0 9.524406311809196 -12.998144631819667 0 0 0
92 2 1.5874010519681994 11.111807363777395 -12.998144631819667 0 0 0
1153 1 1.5604405726318182 10.104838268988026 -11.637004613474913 0 0 0
4750 1 0.5907553691884966 10.303224695072293 -11.811546327422345 1 0 0
608 1 0.3017147203523292 11.347646377654023 -12.006907490070121 0 0 0
5133 1 1.1567269449616504 11.273571648257498 -11.446513515433777 1 0 0
870 1 3.951446067458592 9.86292427943574 -11.383956280172027 0 0 0
1442 1 2.9049643224920523 11.442858551653664 -11.970566158680363 0 0 0
93 2 3.1748021039363987 9.524406311809196 -12.998144631819667 0 0 0
609 1 3.216417882959498 11.122876058514333 -13.077780127812584 0 0 0
900 1 3.955051449294896 11.506762952644715 -11.739829462198069 0 0 0
5083 1 3.6798883770668818 10.587979391373636 -12.047267265399428 1 0 0
793 1 2.5023043955572737 10.318570001432324 -11.941007439538646 0 0 0
557 1 4.6815273366854875 10.72127820464619 -11.518266060893156 0 0 0
880 1 5.076090166849575 9.945824602255664 -12.069069104497478 0 0 0
94 2 4.762203155904598 11.111807363777395 -12.998144631819667 0 0 0
95 2 6.3496042078727974 9.524406311809196 -12.998144631819667 0 0 0
594 1 6.40903614658679 11.091985864826533 -13.055402809299487 0 0 0
936 1 6.882173631836319 10.871297518791563 -11.856450653853422 0 0 0
1166 1 6.068566304651498 11.576525287737487 -12.029810236804279 0 0 0
2146 1 4.870798635018671 11.765265445393855 -11.347716960181147 0 0 0
893 1 5.913220859418604 10.569477582855862 -11.958396117961703 0 0 0
1451 1 7.64138301778741 9.903332258663443 -12.142747446645016 0 0 0
96 2 7.937005259840997 11.111807363777395 -12.998144631819667 0 0 0
4778 1 9.135790831482376 11.869917836410096 -11.741983017718411 0 0 0
617 1 8.629848404397725 10.198576903395066 -11.921638467370876 0 0 0
1197 1 7.244627032343706 12.098306978015021 -11.949585907688645 0 0 0
655 1 2.0878721202984067 12.064777727286867 -11.595730302260783 0 0 0
4843 1 1.0169757854808628 12.550196523702835 -11.877393406098783 1 0 0
97 2 0 12.699208415745595 -12.998144631819667 0 0 0
629 1 1.5469577666002037 12.75953547385214 -12.978877172931782 0 0 0
917 1 1.9182055566280936 13.08261992117695 -12.076655778516322 0 0 0
626 1 1.1794253940600654 13.551420906624028 -11.53946072304599 0 0 0
99 2 3.1748021039363987 12.699208415745595 -12.998144631819667 0 0 0
633 1 3.8969066009762234 13.651743250252254 -11.902517097148158 0 0 0
607 1 2.794499690810115 13.88245251659151 -12.113325002593054 0 0 0
921 1 3.913260380677882 12.551757747072578 -11.576338877233603 0 0 0
657 1 3.1766737288607185 14.270525889720497 -13.030633691297876 0 0 0
1504 1 3.0762727153364198 13.115284011423599 -11.515053595778273 0 0 0
634 1 4.7324741761707125 12.657092043036918 -12.99097681850746 0 0 0
677 1 4.801757126758658 13.547089910122486 -11.463641423333272 0 0 0
639 1 5.054642694857389 12.462030584574556 -12.068561899974913 0 0 0
101 2 6.3496042078727974 12.699208415745595 -12.998144631819667 0 0 0
979 1 5.711406653552523 13.599544523816443 -11.980353716737627 0 0 0
671 1 6.681718282676201 14.0574817147165 -12.16204776013305 0 0 0
665 1 6.337652107456372 14.236220956656268 -13.079757551589564 0 0 0
645 1 7.846643346585463 12.683758755095747 -12.970136435504193 0 0 0
909 1 8.253715476785633 12.642646711341419 -11.989676448194514 0 0 0
646 1 7.343561201300731 13.227380379381241 -11.904875959460743 0 0 0
4834 1 8.399625427173374 13.55415838136716 -11.459189672139225 0 0 0
4828 1 9.219844510262792 13.940229751210614 -12.031965687268935 0 0 0
212 2 1.5874010519681994 17.461411571650192 16.175777053606645 0 0 0
918 1 0.5825057154049579 14.41400043660319 -11.706001849849276 0 0 0
98 2 1.5874010519681994 14.286609467713795 -12.998144631819667 0 0 0
103 2 0 15.874010519681994 -12.998144631819667 0 0 0
654 1 1.6469633706827596 15.843428304324457 -12.986711600833466 0 0 0
5082 1 1.113745591729542 15.289271836552954 -11.934681992242792 1 0 0
5446 1 2.1149572331719626 16.023529086329827 -11.932358946915182 1 0 0
700 1 1.1281170017275541 16.33807880096856 -12.10758396904906 0 0 0
1025 1 0.3808703322067898 15.983755751566195 -11.543129888891661 0 -1 0
967 1 3.563951394196292 14.727646143183645 -12.105731919559142 0 0 0
105 2 3.1748021039363987 15.874010519681994 -12.998144631819667 0 0 0
966 1 4.302829205365854 15.441833812984315 -12.083439118144202 0 0 0
703 1 4.149992354931736 16.425769621161773 -11.928064797960703 0 0 0
685 1 4.709768821537843 15.777520034188711 -12.944073294368675 0 0 0
659 1 2.539998075503453 14.982907378427859 -11.938098758622052 0 0 0
100 2 4.762203155904598 14.286609467713795 -12.998144631819667 0 0 0
107 2 6.3496042078727974 15.874010519681994 -12.998144631819667 0 0 0
875 1 6.206472674218903 14.894848217036317 -11.838558221463495 0 0 0
1165 1 5.250305640028053 15.223964226883714 -11.771418562374802 0 0 0
717 1 7.28094893669489 15.192531257440528 -11.914827741633955 0 0 0
102 2 7.937005259840997 14.286609467713795 -12.998144631819667 0 0 0
690 1 7.863691309374297 15.926292083143679 -12.934623365350728 0 0 0
5401 1 8.30920741226023 15.595746642990344 -12.085136421773008 0 0 0
1265 1 7.329690570684793 16.34891248294421 -11.776064507405259 0 0 0
669 1 7.919569325982817 14.475909321843968 -11.429811860310227 0 0 0
5119 1 9.168911604027633 15.079072858967585 -11.582936793049768 0 0 0
696 1 8.788307240170246 16.730685406538726 -11.918893504678385 0 0 0
4332 1 0.16733947289683285 7.421031099162725 11.896343868315222 0 0 0
698 1 1.5554803585597303 0.050785350026966825 -13.018719168877421 0 1 0
986 1 1.1428785792289506 0.15782365568593967 -11.840519154098203 0 1 0
1229 1 2.1535839504201872 17.07492314301198 -11.43951739582214 0 0 0
104 2 1.5874010519681994 17.461411571650192 -12.998144631819667 0 0 0
4868 1 0.3908262244681746 17.092145597753248 -12.120481342547988 1 0 0
728 1 2.0937628398646573 18.514757572890467 -11.944332491655308 0 -1 0
436 1 0.7480196358853359 18.1756879415129 -11.88670693020022 0 -1 0
210 2 7.937005259840997 14.286609467713795 16.175777053606645 0 0 0
673 1 2.837925797129711 17.8093446902986 -11.755226036079703 0 0 0
943 1 3.0781965635665434 16.81019272044512 -11.84018164782042 0 0 0
980 1 3.7652672597413153 18.18487680335059 -11.92256117074923 0 0 0
705 1 3.1292018041532965 17.535510799341473 -13.08098717655365 0 0 0
445 1 4.924581490852457 0.18990380692642006 -12.466567695804882 0 0 0
996 1 3.0186147896849667 18.817614566952543 -11.475559540754785 0 0 0
668 1 5.278384251365725 16.374053494908537 -12.010718148410424 0 0 0
1266 1 4.634535535640493 17.18033722937493 -11.498422302316158 0 0 0
1004 1 4.855771704149514 18.191960132138487 -11.608246331591578 0 0 0
680 1 5.578709292311999 18.910666559986783 -11.692731915246105 0 0 0
492 1 5.913360214781965 17.903542695836943 -12.127045402132389 0 -1 0
106 2 4.762203155904598 17.461411571650192 -12.998144631819667 0 0 0
713 1 6.413056511904555 17.390307922517277 -12.845234219924873 0 0 0
666 1 6.611002429040085 17.195407568487344 -11.82168169590754 0 0 0
452 1 7.152957792717814 18.283885346966855 -11.890493870627 0 -1 0
108 2 7.937005259840997 17.461411571650192 -12.998144631819667 0 0 0
5161 1 8.114014641471147 18.677635566052402 -11.987922515206249 0 0 0
4849 1 8.966560113842911 17.99389357553732 -12.028600431230103 0 0 0
5515 1 2.3553427722322926 1.6130113373675012 -11.374920313229815 1 0 0
5251 1 1.1553465880374432 2.360944730767348 -10.29898787646345 1 0 0
752 1 2.1375050664092963 2.0752830131775464 -10.466721363823906 0 0 0
4630 1 1.224819339938801 2.038436512202492 -11.257093727457168 1 0 0
4917 1 1.8094903761236154 1.0875025576723654 -10.436680293213112 1 0 0
721 1 0.8746991377428335 1.0068248402106035 -9.86132146727735 0 0 0
1274 1 1.733470166886666 0.521178047214632 -9.476938289465801 0 1 0
5410 1 0.5982590359643015 1.3049028053120495 -10.784130130627748 1 1 0
5178 1 1.771994460947391 0.053339766914433914 -11.013591591682474 1 1 0
5231 1 0.4357193446994106 1.9673299312256043 -9.490233496781961 1 0 0
6020 1 1.6721555539576236 1.7589460284518819 -9.626151851065556 1 1 0
701 1 3.842976756475106 0.4281695044195149 -11.347305010594342 0 1 0
995 1 2.5594431453689936 1.256264275468425 -9.706795425768629 0 1 0
775 1 2.7286222197971015 0.4093261070048903 -9.186929974387562 0 0 0
731 1 3.077193856265495 1.7133019015551407 -10.638083266919526 0 0 0
710 1 4.505205764190312 2.2603953164988604 -11.046052832840681 0 1 0
440 1 3.3889436892546767 0.6039833144214469 -10.288895507495043 0 0 0
815 1 2.5988790492971656 0.6843061213546429 -10.95776748823595 0 0 0
1237 1 4.17402101889671 1.3354838320567477 -10.583615249811622 0 1 0
948 1 3.5536885051602662 1.5829585124285124 -9.708793402021481 0 1 0
517 1 4.4395986366113735 2.179604533077297 -9.815863472219084 0 0 0
1603 1 4.963018177905538 0.7344665106165368 -10.010427071026712 0 0 0
5159 1 3.9731654565891126 0.6966357641273516 -9.33089365087133 1 1 0
778 1 5.187489354367352 1.4839695422436965 -10.81536043512577 0 0 0
785 1 5.428919023220974 2.5905398465334764 -9.756817422169737 0 0 0
672 1 5.64838311315318 0.5602641380627216 -10.756970846802743 0 1 0
692 1 6.181050731596015 1.502464063996807 -11.037953003203762 0 1 0
1295 1 5.882868083483776 0.8758774992054931 -9.581753728088607 0 1 0
689 1 6.61691615863432 0.26488043867728167 -9.114950023515483 0 1 0
740 1 6.5673794688268465 2.4325908554944182 -11.211879254543497 0 0 0
495 1 5.524625833730447 2.6880957527346547 -10.877383655159798 0 0 0
753 1 6.126535478455765 1.9186754666271812 -10.094209594986763 0 0 0
1625 1 6.408215530286688 0.19451438266021626 -10.204159801588379 0 0 0
766 1 6.738132584920248 1.4446168510830415 -9.322665343777226 0 0 0
762 1 9.172512072469921 2.363859192583956 -11.366201738901966 0 0 0
974 1 7.357027531283556 0.03478438490945414 -9.918843971323087 0 1 0
4610 1 8.500607632514114 0.5386513603671517 -11.72531285177939 0 0 0
691 1 7.11212312966988 1.6481305642680575 -10.25722427892845 0 1 0
1035 1 6.922245294349651 0.8209019402037941 -10.822157097496387 0 0 0
4685 1 8.439539378163863 1.6674589186229474 -11.537851853181976 0 0 0
449 1 8.500891804833355 1.368079676137127 -8.999287636312436 0 0 0
1079 1 8.208357257478713 0.9439756355785898 -10.823365177885908 0 0 0
834 1 7.810513577574042 0.9828160166684395 -9.750869656693103 0 0 0
5738 1 9.438386841495849 0.7264696535910439 -11.276285713442853 0 1 0
4976 1 9.05309906831829 0.9289516030095627 -9.908820540431531 0 0 0
4640 1 8.972195439208491 1.6622992233156653 -10.67700484770358 0 0 0
1646 1 7.686024191411611 1.9171950559684747 -9.29119780384777 0 0 0
500 1 8.150881334529481 2.0587656055922117 -10.218431882582893 0 0 0
4243 1 9.439566970918662 0.488095400301691 11.538846675503322 0 0 0
487 1 1.0956036935247675 4.883767350677609 -11.086739306735263 0 0 0
988 1 1.9041484621305997 4.016709624386122 -10.656387596324478 0 1 0
5301 1 1.6872033846546473 3.010522645145287 -11.079554063334246 1 0 0
4650 1 1.3110301623524547 4.130584964667016 -9.63177791998633 1 0 0
4967 1 2.0698657041235804 4.860050614781629 -9.594286096197859 1 0 0
437 1 1.7374382806213704 3.000329729997926 -9.733127858323193 0 0 0
4727 1 0.5760251600765273 4.3967605378579995 -10.246529155494727 1 0 0
4698 1 0.8055108191562445 3.331752035598076 -10.259293711091553 1 0 0
776 1 0.002134073926130963 3.6786286083266937 -9.733569848639485 0 0 0
745 1 0.9153384716188901 2.916710616327214 -9.164900091913555 0 0 0
1060 1 2.8752735263803335 3.0257337239109763 -11.148230553028254 0 0 0
460 1 2.7155054662446783 2.689216051912078 -9.912469879596944 0 0 0
5014 1 2.307170308400071 3.8707697264684815 -9.743556269984468 1 0 0
489 1 4.012371986091707 4.216569906146555 -10.88450406917132 0 0 0
969 1 2.7953124610154143 4.551404951409432 -10.465009579787855 0 1 0
811 1 3.628215840879485 2.6645973607849487 -10.364268298831275 0 0 0
803 1 3.3137615351329566 3.6411622120828007 -10.290233744495545 0 0 0
1105 1 4.001467026301274 4.5665891453902026 -9.7994147833155 0 0 0
729 1 4.155455356825037 3.3975129401090927 -9.766181469751029 0 0 0
4636 1 3.925409614208809 3.1755242078930954 -11.221062618087144 0 0 0
774 1 3.516170260697914 2.5273601391605873 -9.29339413161399 0 0 0
5271 1 3.2940888124723338 5.212601445358205 -9.265979265832168 1 0 0
439 1 4.831489057773917 2.5874496045902515 -8.901116413754652 0 0 0
709 1 5.811766380564 4.283556307472993 -11.176053320165554 0 1 0
1043 1 5.050664420325236 3.6625267986113554 -10.823693941634646 0 0 0
1095 1 5.89391594124281 4.001330817335221 -10.200010919407637 0 0 0
568 1 6.200416060829476 4.540470253872381 -9.270438605346948 0 0 0
809 1 6.463528947111602 2.8680350510575328 -9.435809071712198 0 0 0
1133 1 6.340398531402516 3.129152429498414 -10.471693253692322 0 0 0
907 1 6.75375300848733 4.130878380018829 -10.765443405956638 0 0 0
1058 1 5.131108779054856 4.5447955127924455 -9.794172538452154 0 0 0
5017 1 6.944697734823523 4.848094006734307 -10.032050080179287 0 0 0
1044 1 5.440043899091264 3.6220402826622276 -9.37074970236705 0 0 0
490 1 7.4314205885800915 3.317704767134162 -10.92365164618105 0 0 0
783 1 6.927108145701011 3.852641549030115 -9.783903683842107 0 0 0
573 1 7.34717804340927 4.578131804333157 -11.443758851888083 0 0 0
789 1 8.005759403729032 2.484643212788569 -11.148416739743974 0 0 0
736 1 7.231852886993403 2.6373689374762623 -10.15721424174815 0 0 0
4980 1 8.36157406055 4.940514427033012 -11.48388182120366 0 0 0
523 1 7.503893397770213 3.2435568958377523 -9.100007642139365 0 0 0
5235 1 8.263716096864524 3.9036274968697513 -11.23166728217033 0 0 0
552 1 7.973422798328618 4.556368626640098 -10.473778223630553 0 0 0
1103 1 8.426245468072814 3.9920890308487786 -9.450083193961412 0 0 0
5284 1 8.54692110699555 2.472279138588029 -9.186613737285029 0 0 0
4658 1 8.228438252469193 3.45412684774836 -10.303629288149569 0 0 0
497 1 9.371154619875771 3.4606189239175893 -9.484871014970132 0 0 0
4711 1 9.102778025121513 2.719755228495546 -10.103544489854702 0 0 0
781 1 9.208862571293283 3.691857630927569 -10.768436410147055 0 0 0
5518 1 0.13771887529256527 4.607173059415982 -9.28130273749745 1 0 0
819 1 1.9667814862474733 5.137907861794962 -10.638217523861819 0 0 0
5295 1 1.090367440481489 5.21341526484955 -9.816995285006804 1 0 0
794 1 0.9917936219808529 6.496729103626567 -10.153944222687624 0 0 0
822 1 1.6784763374626053 7.189658041089358 -9.837950762278178 0 0 0
1331 1 2.173457601581671 6.997528329111943 -10.696024448173064 0 0 0
4675 1 0.05811071580131272 4.739650049398454 -11.066780869503148 1 0 0
1093 1 1.4843081461791627 5.946936620221252 -11.05920097186122 0 0 0
481 1 0.06472553005787278 5.705402857303894 -9.710601670253517 0 0 0
4651 1 1.9083636080445785 6.1305803220843655 -9.81683164203523 1 0 0
5513 1 1.0015755987367334 6.040970654903865 -9.226696338108713 1 0 0
1108 1 0.2869866091260397 6.900260886906344 -9.247258943644711 0 0 0
524 1 2.8823563940871857 5.575473259242352 -10.135792203180523 0 0 0
1086 1 3.1476121916329074 7.435836432381054 -11.04537216049081 0 0 0
825 1 2.57175015345714 5.896089827913249 -11.258812162951884 0 0 0
1065 1 3.3906780935984906 5.32373023397712 -11.080891940862289 0 0 0
465 1 3.289222349301758 6.227829124987466 -9.428745905496685 0 0 0
462 1 4.272502133979436 5.429574135535452 -9.13820241429113 0 0 0
4942 1 3.9189563991920586 5.899654413440695 -10.266289257633899 1 0 0
1048 1 4.33499929375195 6.5027423864107465 -9.303020845490968 0 0 0
544 1 3.0797303089571835 6.5359270745034515 -10.599320328355095 0 0 0
5281 1 4.6022528807942304 5.017120872333824 -10.503174911384196 0 0 0
850 1 3.4249103277424706 6.381528492522679 -11.51296681479683 0 0 0
5274 1 4.140741984143822 7.057781601641478 -11.03232675981586 1 0 0
513 1 5.932795144423872 5.058746695826192 -10.110914275140257 0 0 0
498 1 4.6340699738271836 6.149436328086175 -11.024785095822285 0 0 0
520 1 5.429787096093024 5.472656412159693 -10.942673318986268 0 0 0
1075 1 5.205138444659753 5.717326177058539 -9.94427593156147 0 0 0
1518 1 4.7926467310451155 6.694732916518387 -10.190794146173062 0 0 0
543 1 6.980705359044921 6.325033374395531 -10.980768385243154 0 0 0
567 1 6.405330631949625 5.080724452103398 -11.022492550065879 0 0 0
585 1 6.167022201698619 6.0784136200350805 -10.14604458654079 0 0 0
5066 1 6.573638498770233 5.523220674193616 -9.30860794930127 0 0 0
832 1 6.623463286955393 6.668918573059159 -9.405741943787358 0 0 0
1455 1 5.237078928043688 7.024750595320462 -11.101372170533203 0 0 0
1126 1 7.234753578784679 6.124122605737646 -10.016584596080016 0 0 0
1392 1 9.07515674720952 4.476800325753148 -10.087303229301993 0 0 0
540 1 8.993954532079185 6.558338389210789 -10.599806928556667 0 0 0
4705 1 7.600066365828819 6.970919929867768 -9.198747152921925 0 0 0
1387 1 8.397538942731794 6.1412503571099215 -9.764861740254739 0 0 0
883 1 7.545907743198476 5.426447200715312 -10.882237190318447 0 0 0
461 1 7.959041732206105 6.459396037219683 -10.741552180135441 0 0 0
5282 1 8.525564534997136 5.641413201985445 -10.783592471668705 0 0 0
5019 1 9.118546721672661 6.913464621734412 -9.647214248980514 0 0 0
5258 1 8.220139149459243 5.092707143024018 -9.565894702340884 0 0 0
839 1 9.34764517373007 5.568440960773154 -9.995425431750528 0 0 0
873 1 1.8902716655102716 7.6345023512724195 -11.473217446451116 0 0 0
5061 1 0.6183796137205829 8.103838471969393 -10.693698616093602 1 0 0
5346 1 1.6065549970554016 7.933737315927505 -10.573839463831819 1 0 0
208 2 4.762203155904598 14.286609467713795 16.175777053606645 0 0 0
535 1 1.4441167797717447 8.539068222055388 -11.375449846503143 0 0 0
797 1 0.9367028723085786 7.85324808622147 -9.665655723464667 0 0 0
1232 1 2.669999469157067 8.2860164637563 -10.382041533406511 0 0 0
1466 1 1.8788637703948214 8.530736224631971 -9.766944740121032 0 0 0
4992 1 1.898988529162684 9.278437559303041 -10.859547762433028 1 0 0
1349 1 0.9281975366484626 8.996667770530841 -10.216515722852751 0 0 0
8419 1 0.19281558959138664 15.398361450333605 10.26447695395023 1 -1 0
1205 1 3.0020137023565714 9.51849489386508 -11.493194736806085 0 0 0
804 1 3.861411711971933 7.025681796319366 -10.061746803913708 0 0 0
1140 1 2.931770309011589 7.464581232531492 -9.82995579203043 0 0 0