LAMMPS data file via write_data, version 2 Aug 2023, timestep = 100000, units = lj

9120 atoms
2 atom types

0 19.048812623618378 xlo xhi
0 19.048812623618378 ylo yhi
-57.14643787085514 57.14643787085514 zlo zhi

Masses

1 1
2 1

Atoms # atomic

4649 1 6.122888729217671 1.9644787410361666 -56.58794447972723 1 1 1
1449 1 8.146962875363576 18.076692393312662 55.27248556096525 2 -2 -1
886 1 3.533298109694505 4.135598196822959 -54.23748977747281 0 3 0
804 1 7.249009071366859 3.563183181260709 57.11661027871537 -1 1 -1
5145 1 10.37043757877619 2.1100425391312423 -54.56717392543189 -1 0 0
8453 1 10.780500130477108 0.3315976084664872 -56.125772255296674 0 3 1
3676 1 12.319570426998363 0.6483337616854016 57.039461813640955 -3 0 0
1013 1 14.745883342272927 1.7352104853312813 55.42230688017862 1 3 -1
4567 1 14.981897253600733 3.390618592780955 -56.37714100288897 0 1 1
4906 1 1.6187239550845405 2.0395309778794255 56.23069600238695 0 2 0
6384 1 3.327703006716049 2.884439537262068 -56.13205464583567 1 2 0
1486 1 2.1308451457694537 1.1357150101272864 -56.49149025459794 -1 -1 0
1175 1 9.228723721073088 3.1375464123484202 55.91006101442706 -1 1 -1
4741 1 12.489632345957608 2.1974845669582033 56.8927156727958 1 1 0
8837 1 13.037585748689333 3.8692179518422645 -54.51923501871988 0 5 1
5237 1 16.284221969220038 5.7441732810827615 -57.051610504590336 1 -1 0
4892 1 3.557260840203356 3.948129288815748 -56.289654831728505 0 1 1
928 1 4.814982938466912 6.1483880372260105 -53.20197165221825 0 0 0
895 1 7.627832951513282 4.988197159172712 -54.565003330062986 -1 1 0
5576 1 6.50581016083057 6.593036463890988 -55.64753579783757 0 1 0
8434 1 6.790531547240583 2.544929931682005 54.704330686316865 0 -2 0
1195 1 11.690257520480245 4.031010337974711 -55.300014659200706 -1 1 0
4623 1 10.487230075385597 4.075412158035648 -53.34297139103447 0 0 1
929 1 10.987810774565837 6.431671393504232 -55.47312823363725 1 0 0
9071 1 13.29651738791394 4.967359785092691 55.43294835440067 -1 1 0
8810 1 2.9792956587703125 6.057054237403886 56.865998303091416 1 2 0
1903 1 4.478427493149692 6.853251321300325 -56.42483975711723 -2 0 0
8157 1 8.018324011288625 8.72907034715702 -55.23572346422139 1 -1 1
774 1 5.117807243812318 4.4214255510518905 -56.906870046944796 0 0 0
8459 1 12.59647479154079 4.242921793181055 55.397928127329415 1 -1 0
6138 1 13.103497682550977 9.039471539212443 -55.24475759778245 0 0 0
1589 1 11.810429095942398 8.54007058399366 56.6831956944155 0 1 -1
7923 1 13.551743458966495 7.192212007784966 -56.96273753870632 0 0 1
965 1 15.211375736761276 6.22334005380608 -56.127583843751744 -1 -3 0
5141 1 16.183777882082666 6.24661896629374 54.79449614422586 1 0 -1
1259 1 1.5299461630694362 9.413564499308347 -54.81113811338861 -1 1 0
4921 1 3.6075092396141364 12.046984761257407 -54.761397849945055 2 2 1
4762 1 5.652795264925325 7.682106979221494 -55.096151201106544 1 -2 1
1116 1 6.856807869798189 9.499455040748632 57.06906968345184 1 1 -1
8708 1 4.854569575425053 12.923179526262365 55.71044034299536 -2 1 0
5620 1 10.360201765071588 8.046888165492888 57.02876899276735 -1 4 -1
8430 1 10.944277229796226 11.647106342030495 -53.87321908067052 0 0 1
6134 1 9.224465042865171 7.647402457193305 -54.73469673236996 1 -1 0
4721 1 14.192300345580032 11.924642040738096 -54.05726012163177 1 -2 1
3954 1 15.231843166697793 10.714644551986781 56.33364003832837 -2 -2 0
4332 1 1.699782651036341 8.39818137226089 -56.58761813082965 1 1 1
5133 1 18.652058092569295 10.459710952529498 -56.391937297532166 0 -2 0
5113 1 17.734388490477162 8.169077974645365 -56.38861746701528 1 1 0
1196 1 16.272091434842444 13.89785474590195 -54.22727729012888 -2 -1 0
9042 1 5.936292262227143 13.441321729236028 56.76243898388818 2 0 0
5786 1 7.552716574110755 10.611355385381342 -55.401962347308945 -1 -1 0
5693 1 8.709604708403726 10.966829483291711 -56.98155293001384 2 2 0
8675 1 12.58523668204932 12.180329471218823 57.05384291650183 0 0 0
5372 1 12.784936900812472 9.009466725937568 -53.923199961515515 1 0 0
2094 1 13.211698042012692 12.520037234882825 -56.384176858663004 0 1 0
1114 1 18.828564662217953 12.787528308649986 -56.417753270901066 2 1 0
5171 1 15.001182200875197 11.576186325989406 -55.70667518303806 1 0 0
795 1 18.03311799437138 13.927152157180009 -55.52984310401164 3 1 0
7912 1 0.11743262050168783 13.163336270219332 -54.200170505073146 -1 -2 1
4158 1 2.3119774993198225 13.828285923590908 -55.486428505416534 0 0 1
5271 1 3.677329697908958 13.206319256090785 -55.92989065467842 0 -1 0
4003 1 8.583250782896853 13.20315035632567 -55.182883321885804 0 -1 1
5218 1 9.149459553465034 14.680051424820745 -54.792590903731906 2 -1 0
4320 1 11.578978501420337 13.851782991249513 -56.86759384197098 1 0 1
1407 1 14.17496042633006 16.506626139591642 -52.373051659496596 1 -1 0
6460 1 14.706964330496891 14.653427744516298 56.763077887185624 -1 -2 -1
1356 1 16.939284079518284 13.37259193077616 -57.11197395779912 -2 -2 0
5051 1 1.6228827861024493 13.110449400165125 -54.933880133483655 0 1 0
8583 1 3.8288324555458373 14.819826828481013 55.96262215015255 1 0 0
944 1 7.577515306277388 15.686762917259578 -56.70403192432293 -1 1 0
773 1 8.804427405712225 15.392487036034145 -56.98060191459444 2 -2 0
4682 1 11.007276917417082 14.005591364632352 -53.77865225994649 1 -1 1
4347 1 13.556823510056876 16.607867946251204 -55.93317505157401 0 -1 1
8817 1 12.560303312464411 16.73823396350866 -56.5280803327774 2 -1 1
892 1 14.453776038605401 16.75000358926984 54.540629520756504 -1 -1 -1
1915 1 14.156341890739181 17.410764495208394 -56.529537110390905 -2 0 0
5195 1 15.917499746543948 14.329447150060647 57.08014995312566 0 1 -1
4648 1 13.095356829576597 15.139515984715725 -56.17826672126363 -2 4 1
8777 1 13.873731453988924 0.27975189012554463 -54.40606020307769 2 -1 1
6070 1 17.681500656307758 2.093978539428714 -56.25965579847797 0 1 0
5889 1 15.144761014761603 1.2341039265183726 -55.28528460740857 0 1 0
5509 1 17.062062467651874 17.410227396643812 -55.19385842443868 0 -1 0
821 1 17.494016839074746 1.7491387338817281 56.32227774709502 2 -2 -1
1001 1 1.3390878432424538 2.1628587925712193 -55.00330384794666 -2 1 0
6086 1 4.31773890075744 2.334096100613905 55.9835051762843 2 1 -1
5404 1 3.041554547838258 2.4534259589587397 -55.06482665644395 -1 4 0
1191 1 9.61973195116362 1.7573282694412702 -55.94304230533377 -1 1 0
8998 1 9.200833993525682 0.7684652320434158 -54.790058333773835 1 2 1
8471 1 12.063890423761068 3.2148471007236914 -53.597097437392044 -3 -1 1
6379 1 16.24070902758968 0.9671123559581316 -53.89502903066639 2 2 0
1233 1 18.50321647556455 0.44292576620017954 -53.681437719496934 1 -1 0
4231 1 1.7777595156672814 3.8447728747694243 -54.72042584133345 1 0 1
1598 1 0.7455648621395112 5.347451883372618 -53.23955105389803 0 -1 0
4971 1 2.573690015695154 0.6374021414041123 -53.88439769520216 0 0 0
4929 1 2.666063360662841 5.623373766033682 -53.655683613867424 1 3 1
6511 1 2.7246049005044073 4.048368427727346 -53.63034612521605 1 0 0
5227 1 5.080594815755708 5.3541163356944805 -54.71944698215041 2 -1 0
8841 1 9.380997238777349 3.043422885694973 -53.72237015756455 -1 3 1
4987 1 14.378280278208258 3.801246134732677 -54.79502534806148 2 1 0
8725 1 17.473575708063162 2.8708256594092494 -51.45336799638454 1 -1 1
8500 1 14.701762424403814 2.5648573127832717 -54.79583049023672 0 1 1
9029 1 3.1916988555077035 6.331162919620156 -52.54649335239456 2 0 1
8982 1 1.6621688391717595 5.580745500443572 -49.9062970806099 0 1 1
1068 1 9.42349657328117 6.100204404502356 -54.58680111980344 0 0 0
4255 1 12.172211199223117 5.356493705289593 -53.18467295569995 4 1 1
9099 1 15.230957294482401 4.0791058689317214 56.99391417674195 -1 2 0
1025 1 17.1092154873379 5.473677350484073 -52.294456109312144 -1 3 0
1304 1 16.925653910493754 4.351475192867716 -54.49719415578491 1 -1 0
4573 1 3.461140143955497 10.540786980204672 -55.47687281958021 -1 0 1
5182 1 6.483871812390856 6.953009920127888 -53.66350699157515 3 1 0
5395 1 7.855029322678589 7.499319096455555 -55.65867523276904 0 1 0
5540 1 10.054332353840218 7.245278919733715 -54.24238428761701 0 -4 0
2623 1 12.375298315067692 4.1654123606598175 -53.56948387922079 -1 -1 1
4336 1 14.987211574028121 8.25022689017461 56.5621068152956 0 1 0
8614 1 3.5396240916504262 7.007194571488885 -53.26614807859008 0 1 1
8160 1 16.914968457528726 8.66769105622475 -54.50741596773691 -1 -3 1
933 1 18.549324479565506 5.386920178294949 -53.30861542781511 -4 1 0
7807 1 6.026241289529629 9.047313840155121 -52.05033808228812 0 0 1
5291 1 5.66898887360619 8.736590631678494 -54.63963297103112 1 0 0
5410 1 8.726314555389033 8.952722837716752 -54.35014754603859 3 -1 0
1615 1 12.159616152915161 12.690222579480885 -53.062871373853106 -4 1 0
8441 1 8.961468279293605 9.705327470852817 -55.040972537246866 2 -2 1
4086 1 14.93352873351356 6.967610886454443 -55.31479802370043 0 1 1
4833 1 14.127882593176041 8.960400751289377 -54.20626267006026 -1 4 1
9072 1 1.590950506754726 8.797011090711404 -53.21938340800117 -3 1 1
6217 1 15.322334130132424 7.753432480524943 -54.45411186030329 -2 0 0
5101 1 2.910722302103495 12.765061273694194 -55.08752094353761 1 0 0
9065 1 7.034914443687792 11.90140913143753 -52.940831949218236 1 -1 1
8332 1 4.390320247580518 11.284854700871769 -53.81793743295977 0 0 1
1000 1 8.274323246483737 9.55153794669324 -52.99847173091281 -1 1 0
5856 1 9.135309098320024 12.192310714697197 -53.97334905699569 -1 -1 0
4500 1 7.564142597636421 10.785142040362594 -53.725669976387984 -2 1 1
4676 1 13.151049856715218 11.496579239516905 -55.39902704272139 1 -1 1
1700 1 16.413834504519016 13.1586174450447 -51.21184457900937 -2 1 0
5161 1 18.017320414205994 10.449157372416884 -54.8018302584458 0 1 0
4703 1 0.09526720436798601 16.284206650076065 -53.48640072332734 0 -1 1
5250 1 2.5803073010208757 13.551989031981265 -53.03278610739142 2 -1 0
1437 1 7.905418512926137 16.070382197680992 -55.14902021875024 2 -1 0
4709 1 4.8263603065862934 18.124403331485286 -56.41076468890824 0 0 1
8384 1 4.258004587086212 14.261577482888379 -55.49302626897953 -1 2 1
4900 1 4.113607148710663 15.438934671928562 -53.01211740731076 -2 1 1
4480 1 8.926857048775114 17.051409512150258 -56.363211494684016 1 2 1
4079 1 12.01701134983183 15.016259379350414 -56.604202957154286 0 -1 1
1740 1 16.705371211333215 12.81868774826189 -52.85339701677666 -1 0 0
4718 1 1.9545518417673338 15.61706653388609 -53.8593341777297 0 -2 1
8576 1 2.1879421266302717 16.86993121794754 -56.03032935344844 2 -2 1
1131 1 1.614111322372555 0.9341828666136488 -55.66878429404359 -1 0 0
8968 1 2.005543441665211 15.190781445403736 -55.8478720342447 2 -1 1
1688 1 8.122430982607352 13.835907972872018 -53.840634537436436 -1 -1 0
8688 1 14.599464131075012 18.036688200086175 -54.79003396658589 -1 -3 1
8302 1 17.045673820582895 15.426946506866113 -52.26745953079609 2 1 1
1014 1 16.902221902353357 16.599788011028547 -53.95460032095407 1 -2 0
5847 1 0.21444345253412322 18.781541396680176 -52.46799953522761 0 -1 0
5536 1 9.126292057784779 14.426447379434855 -52.67463830808783 -2 0 0
8644 1 18.84841527118889 18.86711164945753 -55.123175666439444 -2 2 1
8803 1 15.163725609422936 18.245902092469137 -53.37697466506078 0 1 1
8768 1 18.226993112491126 17.609868431244752 -54.06331399994431 -2 -3 1
5262 1 3.7343712876689805 16.812914356980585 -53.27846169144076 2 2 0
5043 1 4.240230927476667 0.3466033631023221 -54.23064289563239 0 1 0
8992 1 8.413869164552215 0.31672985611185106 -53.162588336447676 2 0 1
1515 1 12.60799616315205 1.686672979060953 -54.76201221083728 -1 2 0
8627 1 9.989522117035108 18.840290790273556 -54.117558164633735 1 1 1
8579 1 10.01544203313711 1.8476077179843347 -51.55591207107869 3 0 1
4849 1 13.504844524943985 3.0210005250623397 -50.63280422138386 -3 0 1
9011 1 11.114888178037262 0.0073006500799634175 -50.509338798282286 -3 -3 1
8319 1 15.93089784206087 17.896237170454768 -51.32763616431978 0 -1 1
5630 1 13.756319477439204 4.277669614499072 -51.79469124436539 -1 -2 0
4707 1 18.409226505224563 1.754264996336526 -51.56900577627247 1 1 1
1211 1 1.136304302288147 17.805044230401208 -52.06843247794287 0 -3 0
1382 1 18.449331843440042 3.7312211309552987 -53.970126948635375 -2 0 0
9056 1 0.9817562154411782 4.1317425910630705 -51.688698077374575 0 1 1
4713 1 4.2160778617674515 1.0332565097449666 -52.01399547333946 -1 2 1
1122 1 8.515807688602212 4.392290486564721 -51.84534323042568 1 0 0
4843 1 11.120056563946749 4.501449141673522 -50.63757694722602 0 1 1
1037 1 6.149760523668471 5.831516021389162 -51.621693653467645 -4 0 0
994 1 10.785881288313497 5.208618444392872 -54.2355996223561 -1 2 0
4645 1 17.092857788139316 0.8779473028372495 -55.40806657456214 -2 -1 1
1130 1 16.652268493263872 4.2070256095915575 -52.59577804020143 1 0 0
4532 1 18.805247870843576 5.579134629320885 -51.39935356430713 -1 0 1
1189 1 0.8776377194309402 6.448762061674267 -53.289755583589155 0 -2 0
8964 1 5.832242319283127 2.417240890054062 -55.096605781750746 0 1 1
8432 1 6.6696663516978285 5.795343542372464 -48.70494911708383 1 -1 1
5409 1 8.42654206970058 3.5379249037919775 -54.09428734277513 -2 1 0
8552 1 14.567592817427206 5.2330597064901 -53.83451936609327 0 -1 1
4230 1 2.641456377349683 8.125899927881301 -51.54923779723603 1 1 1
4861 1 7.487337082522285 7.408571853863312 -51.911784573835085 1 1 1
1602 1 7.245854536822419 6.598375867356952 -54.468048513893386 0 -2 0
1861 1 10.92842519279292 8.90994479558321 -51.27035655243296 -1 -2 0
5109 1 8.467417979837515 8.934041230866464 -52.197136034597264 2 3 0
8016 1 8.788186213719275 7.845514094112574 -53.82430199503572 1 2 1
2030 1 10.02222758726115 7.076771702913408 -52.70984495684006 0 1 0
5049 1 12.151423060176361 9.047209171025942 -49.82255738077382 1 0 0
4358 1 9.9308289984644 7.913894074879697 -52.040244349201835 0 2 1
5939 1 17.463915903716455 4.716412083970822 -53.19277968584045 0 0 0
5551 1 15.691052296595661 5.960358483839197 -53.50194966913395 -1 0 0
5380 1 16.15022660819873 7.274823354832086 -51.22468932743019 -1 0 0
7986 1 17.161547420902842 8.708402022329247 -51.57448208208124 -1 -2 1
5424 1 14.932496259668714 3.7066657534422047 -52.45488533727079 -2 1 0
5458 1 3.2267882095483307 10.496920936004637 -52.0887025896799 -2 2 0
5475 1 3.7581936296474416 10.906274306837654 -51.29018936391725 0 2 0
8680 1 5.536538874055079 10.506405928062325 -49.40102197912316 1 1 1
8975 1 11.70456781447777 7.311527020706763 -51.659962151234936 0 -1 1
5519 1 14.72135566029151 7.4898153043633355 -53.28784131194961 1 3 0
4292 1 0.15846853849255282 8.236310572108623 -51.75581192132993 2 -1 1
4723 1 0.8215242681786253 13.58111908729243 -52.95210931875197 2 -2 1
5216 1 18.027280870013165 11.079067003858903 -51.979539999884906 1 3 0
1360 1 5.362291499942729 11.439237392144994 -51.939065827776574 -1 -1 0
1611 1 7.2939052836025935 13.183801034340924 -50.43093650584358 -1 4 0
3738 1 13.37114438845852 14.154984940431367 -52.78845452530261 -1 0 1
983 1 15.715733463389292 10.085354240082012 -54.18533226696114 0 -2 0
4404 1 17.80950065078216 12.157140171706601 -52.21330851536999 0 2 1
5923 1 7.0643159655498255 11.603302532218173 -54.27486517964409 0 -1 0
5705 1 6.692198682833612 14.143414022044732 -52.369132151528056 0 -1 0
1885 1 8.75155593789105 15.231223232323511 -51.89123795593561 0 1 0
1577 1 8.053121653687496 13.902041063423285 -51.414951018365976 0 -1 0
8793 1 10.555965076744345 13.46390400610084 -52.8766279814726 1 1 1
982 1 12.685621007070202 10.542676815320073 -54.98997855953138 -2 1 0
1240 1 15.978063323958253 14.464052470341953 -50.95389080789789 -1 -1 0
5449 1 0.3660789298491554 15.324168760914345 -52.594506281347954 1 2 0
5258 1 1.5447933435306291 14.988155288094195 -52.282741079534894 0 -1 0
5068 1 4.937250220310062 17.467318744864837 -52.17666390394046 0 0 0
4685 1 9.77126302018477 17.865520901787708 -50.71309282043499 0 0 1
6173 1 8.024648426934604 14.867900518781443 -49.635292279685096 0 -1 0
8442 1 10.02672392139104 16.15585560411222 -50.66351979132565 -1 1 1
5353 1 12.671337820251734 15.5883116082181 -51.281215501401 0 -1 0
5098 1 13.202533475110013 16.870099395147452 -51.224217254048284 0 -1 0
5251 1 1.3016647671889319 17.40256767476522 -53.815096470494176 3 -1 0
2034 1 2.2659110076394144 18.2039721571992 -51.76658894167892 0 -1 0
9112 1 2.681289090548038 15.602134558879367 -51.33622156052564 3 -3 1
5594 1 4.113870129745566 17.98324847758665 -54.91830179355578 0 -2 0
5454 1 7.7000030960862516 0.563506491010903 -51.465938189764785 -1 5 0
5006 1 6.446781411763541 18.218014128942738 -53.387579255598695 0 -1 0
1178 1 8.66512468810606 16.777276422749193 -53.35312377170673 -2 0 0
4579 1 8.534219965470717 17.114624860224186 -52.376600196950754 0 -2 1
4254 1 10.569581391988386 1.1907618725905615 -52.049489291510056 -1 0 1
8994 1 15.957620523768593 18.103430688583263 -54.15279277048269 -1 1 1
1110 1 1.3994271259236883 16.547011341734827 -50.267953545551 2 0 0
7584 1 4.783047433589504 1.723295178100771 -50.13701545078001 -1 -1 1
1417 1 7.090924792866811 18.494355446502954 -49.3451865351148 0 0 0
5231 1 12.106962627494255 1.7688077978619474 -49.34241258293636 -1 1 0
5709 1 14.294423391731847 2.5432046532864914 -51.75268177506802 0 2 0
1529 1 11.564734320079143 3.20267484546855 -51.56250627142203 0 -1 0
8752 1 14.469154429947563 16.85665491853456 -50.277121883776076 -1 2 1
5047 1 14.310772543263557 0.023895321153647245 -47.46882551875457 -1 1 0
5921 1 13.99020210998452 3.5949298427754868 -49.937544592173005 1 -1 0
4770 1 17.34132073800977 1.5999318086726253 -48.883668360034726 1 1 1
5004 1 1.4004539007876196 3.2457688308288954 -49.97560564931089 0 0 0
1101 1 3.7180031682310175 3.680941226400506 -50.72517576883326 -1 2 0
4802 1 7.109889446029297 0.647988332619655 -49.992188842230085 -1 1 1
3916 1 7.0962594001711246 2.6847332298482764 -47.43605410624749 -1 0 1
1839 1 9.026324257686412 3.1532454571903195 -51.641106416296644 1 2 0
9098 1 9.278686206288981 4.359834905672652 -53.00070593518199 0 2 1
8515 1 10.523300447034247 2.736187848156852 -52.14096235439232 1 0 1
8535 1 10.389148641114387 6.480941139518391 -50.03119644659554 0 0 1
9061 1 16.626037267185083 2.9141833598422586 -50.499477922751645 -3 1 1
9035 1 18.66857804773997 4.353058457696454 -49.80647212220883 2 2 1
5840 1 2.5311363137302605 4.467102284014839 -50.64168416711745 1 -1 0
4647 1 0.5486324011683119 4.399566662746977 -47.682500624025344 0 2 1
5295 1 4.887006354581091 4.235793022911079 -47.294428410079874 0 1 0
4614 1 6.292980716151186 7.2772027232357805 -49.44838840958085 0 0 1
1017 1 9.831751300891789 4.365464195614095 -51.84428990909095 1 2 0
4537 1 12.139010971079184 4.717724018888957 -50.35660690999667 -1 -1 1
5622 1 16.073885331444586 3.420478780434539 -47.69354049384823 0 0 0
5720 1 15.156712681867416 5.181257974504723 -51.94628362564267 1 1 0
8605 1 16.232222132191747 5.817670981872825 -50.920978248496866 0 -2 1
5869 1 1.2279315727107156 7.123062769654151 -51.471506334298375 1 0 0
1762 1 2.6352028618078087 6.920290548507137 -51.00248078562386 0 0 0
9100 1 9.198661869771913 8.227415068722175 -49.818069525375726 1 1 1
791 1 10.376134934252601 7.696964872236768 -49.68773402100493 0 -2 0
6927 1 8.73951636478994 7.0892994792185995 -51.003475638318115 1 0 0
1032 1 11.152915860921208 6.849980374499506 -50.829247025113354 -2 0 0
4110 1 14.165769178194582 4.859078401395967 -47.504228698397505 -1 1 1
5039 1 17.496224378654706 11.081847379449908 -53.12293252421355 -1 4 0
4296 1 18.761297813768717 6.543436246965738 -52.37656117404503 0 0 1
5362 1 16.632418555138546 11.260415940267686 -49.35833698496596 -2 0 0
9004 1 1.6472035936050302 9.23201582962401 -49.799468470188565 3 1 1
1044 1 0.24822989089211248 10.212748567975392 -51.928207085869346 0 2 0
1097 1 2.199582774791503 10.197773177820483 -50.89076533213232 -1 -3 0
8526 1 7.9606594592805004 7.63913616417909 -49.8706807583456 0 0 1
8548 1 7.302443249532672 10.1625632668837 -47.982815710017995 0 -4 1
4251 1 7.860576705293486 11.951198371758405 -48.39980420065587 -1 -1 1
961 1 8.01195179629599 11.313143402096545 -50.609832460109466 -1 0 0
4910 1 9.59954549715661 10.918461919018378 -50.67198089711532 -1 0 1
811 1 11.370822196939136 8.676915663242205 -48.88278869261214 0 -1 0
6124 1 13.7157975328609 9.93288621107148 -48.755721162449596 0 1 0
5164 1 12.610525449844916 9.414726214303743 -51.441120094097265 -2 -1 0
4268 1 17.00962260085174 7.509066529768093 -48.86528596622634 0 -2 1
5524 1 14.219094300563436 7.917022058540728 -50.91228358326374 -2 1 0
5528 1 16.85894122281823 11.277978745420855 -51.000035571652816 -1 1 0
4608 1 1.2609500703041177 11.852368689285123 -49.38238548418833 -1 -1 1
1642 1 18.35410324769871 9.684059550191662 -51.19348871495121 -2 -1 0
9063 1 17.7253413792031 11.857238388037857 -50.078723072668005 1 -1 1
8820 1 0.19439120471546478 11.149122455166458 -50.11959760594237 1 2 1
8947 1 3.514897224776495 15.141676059687375 -50.88134397697931 -1 1 1
8149 1 2.974255770852103 10.170189401220082 -48.345618461845056 0 -1 1
5846 1 8.968801642462026 12.216742442736143 -50.67244707405975 1 -1 0
1498 1 9.20392705560566 11.746248453668189 -47.8507347349244 1 1 0
1238 1 10.772093176790603 12.345805940925306 -52.842529967946874 -3 1 0
1087 1 13.874463705873737 15.933073067488282 -50.14219252741184 -2 1 0
1580 1 0.6185007887292197 13.264514972788797 -51.30769324154489 0 1 0
8775 1 5.722604801651003 16.211961709564747 -52.675399459326925 -1 -1 1
1273 1 5.242331751019099 13.60758268331131 -48.53967474561074 0 0 0
2474 1 7.750037617481551 13.001587492072662 -49.003561641165994 1 0 0
5879 1 10.865094808884319 10.98914536158024 -51.787904764445244 0 1 0
1786 1 11.240755299046501 12.893150296871065 -48.197280251598194 0 1 0
5275 1 0.28848028366339606 14.660824253470027 -53.533053679351845 2 -3 0
5689 1 1.301279866350133 16.307826848367924 -51.38882779197203 0 -1 0
5472 1 18.54975807742415 15.48806858716198 -50.19199827797247 1 1 0
4269 1 3.7960135628954155 16.505951634652707 -47.73265332629707 0 0 1
8326 1 7.172399102987847 16.878893087583574 -50.23128623695909 0 1 1
8414 1 10.071969162050715 12.115021786917044 -51.92522546232041 1 0 1
5272 1 10.719462139005417 15.272520976151606 -48.540685866249376 0 -1 0
5476 1 12.007258077416264 15.54361151242017 -52.956362322345356 0 1 0
896 1 15.478558450990697 16.780671862374817 -52.02339271915319 -2 0 0
4498 1 16.27655218889032 14.378942246890878 -52.9021875097772 0 -1 1
8436 1 17.95524878482164 15.78528965027948 -48.76766304786025 -1 -1 1
5220 1 0.4886159402822386 15.964624955015546 -47.978917662891284 1 0 0
5398 1 3.2442891232816917 2.43270624060877 -50.601443357909034 1 1 0
2179 1 4.534645602368771 18.497683774711664 -49.69925214329916 1 1 0
4984 1 8.6562774869677 17.73207992852057 -50.22763491729896 1 -1 0
1316 1 10.079871365633508 16.82184442662395 -53.31612682005898 -1 0 0
1432 1 8.144783718171514 17.70566481102324 -48.389771660020344 3 -1 0
5426 1 13.825052103132196 1.3605133176736934 -49.78617689117642 0 4 0
5021 1 11.549556860466222 17.873518859881624 -47.621920338195935 -1 5 0
1076 1 13.74973032472798 16.545687407114432 -49.03486221584347 -2 -1 0
5093 1 17.88484681449884 17.310586998918915 -50.329556397767846 2 1 0
8914 1 15.86441244458507 18.94699292104911 -47.3237248125828 1 0 1
9052 1 0.634781696815153 2.1018171148485605 -45.90303478746769 3 1 1
908 1 7.510720121576983 1.6654128615057946 -47.369952839331475 2 2 0
1660 1 5.8825580454591275 1.3386711855017124 -48.92632799183937 0 1 0
2042 1 7.486791546576298 1.8435825416698497 -48.75718544781281 -1 0 0
6035 1 10.827117600448366 3.312086151754017 -48.69005881102349 1 1 0
5510 1 15.158151493663269 16.99954621783925 -47.3244678577617 1 1 0
6166 1 16.90039403953177 16.690174580668312 -47.03379477694957 0 0 0
3942 1 14.96848526935578 18.291749024037884 -47.95962594498358 0 -1 1
4502 1 18.623412333774795 4.497161799601499 -46.72264731052536 0 0 1
5582 1 5.938577117302996 3.425128727412147 -51.398840496059364 1 1 0
8783 1 7.920487902372914 1.4129540930236415 -45.866812882207334 4 -1 1
8757 1 10.5825114558944 5.273074872529165 -48.79432215441114 1 -3 1
1067 1 8.798985310952203 3.844084977135943 -50.279108521177 0 1 0
1910 1 9.735229544425136 3.877464234875974 -47.320795356237646 -1 0 0
8381 1 9.102502396448527 3.55498515708208 -45.559388196578034 -4 2 1
1146 1 11.822988068845488 2.8604557527522636 -49.61033994507452 -1 0 0
1875 1 12.719492687771432 18.98954805706672 -47.79669120599863 -2 0 0
8423 1 12.032645433805722 3.7060255061149454 -47.82188041042537 1 1 1
1578 1 17.627561899309843 5.096661039734661 -46.09996864714323 1 1 0
849 1 17.29538376654448 1.2694780450203629 -47.89720223658455 0 0 0
3992 1 15.671430502855834 4.4059263567132865 -49.93786516403442 0 0 1
6207 1 16.684014421060702 0.13641511654414745 -50.16301972004177 0 0 0
1216 1 1.452772079189336 4.283196227651387 -44.90507412560398 2 0 0
8710 1 7.270173069993826 4.900545288451183 -46.88535998687632 1 1 1
2109 1 7.574136141490616 6.555251107616139 -46.84419314218431 -1 0 0
8119 1 8.242820872780436 4.773975266403835 -48.246541597871484 0 -1 1
843 1 7.628353738974538 5.571365374949166 -47.60101281559286 -1 2 0
837 1 11.315957894233776 6.664520909752243 -46.90370072845993 0 0 0
3712 1 13.437703651822119 7.66963091788405 -50.27879473258586 0 2 1
6204 1 13.480853259010608 4.434531505486723 -49.708577141541056 1 1 0
4864 1 13.281015162547963 6.666724112223919 -47.540101472893 0 2 1
1345 1 14.016237071916136 5.723266431010959 -48.83175810874194 -3 1 0
5125 1 10.987159270247151 4.924582404819183 -45.429369680559915 3 2 0
909 1 14.897398863118102 3.668955462988826 -47.346241269354955 0 3 0
985 1 15.30217569439319 6.198979178502474 -48.29762175435644 0 2 0
832 1 15.46946557437798 5.245764524649888 -50.481194109528026 -2 0 0
2081 1 5.403276587577216 5.722958947212858 -50.19033841101419 0 0 0
1964 1 2.16517808013266 7.403275526364072 -49.198087736444734 1 0 0
8889 1 9.451356391215443 8.143266735717674 -46.81445705115203 -1 -1 1
6482 1 1.1647890751144518 10.266815264406345 -48.75485733466392 3 -2 0
5377 1 4.260787167932957 8.275833600667914 -47.328390956274426 0 0 0
4895 1 2.0548339019281987 6.8711609437669825 -46.586152508124655 1 3 1
5392 1 2.4794268013694762 8.2978564251635 -46.14054283320387 2 -1 0
4832 1 5.049983190200904 7.4678534013362965 -49.935703830592836 1 0 1
8295 1 6.344102970858451 10.217055800783545 -47.376318579385604 3 1 1
818 1 8.30771129166802 15.455060693255925 -46.43336419566608 0 0 0
4958 1 9.947986233173667 9.117507268482292 -48.63258306350058 -2 1 0
5284 1 11.846954679092933 9.840200568506736 -48.80341772012237 -5 -1 0
5252 1 13.551499865983466 7.575420726608799 -46.92255035613997 0 1 0
1887 1 13.118336608264599 8.460065250463147 -48.69384618228943 -2 1 0
4857 1 0.2879004765949757 16.76764823444888 -46.83080506674146 1 2 1
4056 1 5.6490623338024895 8.408663553905846 -48.66336270175543 0 1 1
1166 1 7.937597216090863 12.596395610299917 -46.861740960330984 -1 1 0
5116 1 9.572940957059137 13.226896753769894 -49.00026664946482 0 -1 0
835 1 13.669204323657953 8.607614539250184 -47.455793999422916 -1 0 0
1674 1 13.588851319781423 11.891143327402975 -48.98965213909666 0 -1 0
5062 1 17.69830523045546 13.024235403281045 -45.96141564473648 -2 -1 0
6029 1 2.929975527278946 14.60872107708502 -46.35640939720424 2 -2 0
5011 1 12.75067760707276 14.050780193261502 -49.065515130191656 0 0 0
1324 1 13.513310222753521 13.110244467952656 -48.2995830723094 -2 0 0
1035 1 15.720560631542506 10.271537567181905 -50.89946038880612 1 0 0
1040 1 16.02154632958603 11.896666692665422 -47.74674998909631 0 2 0
5174 1 18.138587302556772 15.474308780671915 -44.71228323497741 2 0 0
5092 1 3.5324135054225603 14.339886313774818 -47.232909003129215 0 1 0
8885 1 7.568811165134163 14.417527063793903 -47.96695699298426 0 -3 1
1027 1 6.494879964622449 15.385848540609459 -52.23900298592928 1 1 0
8274 1 13.375539521581587 18.4815408008419 -46.637203650477474 1 0 1
2022 1 9.850330200403452 14.92791599440784 -51.23579486132827 -1 0 0
997 1 16.557181766980612 16.538320599596734 -49.97421559668147 1 1 0
1126 1 17.267459015652413 13.019838384365784 -48.113923387238955 1 -1 0
5193 1 17.5553840198423 14.445625422074958 -46.84517640811391 1 -1 0
1306 1 16.38734909289009 14.726719856352014 -47.89321189094345 -2 -2 0
1054 1 3.3549347960498865 18.732910024991646 -47.31991321009879 2 0 0
5954 1 0.8897088708147205 16.551932186232428 -48.866088091085444 -1 -1 0
6372 1 1.8335974349327542 18.628823900049788 -48.56760753411489 0 -1 0
1494 1 9.12176673000699 0.38633100509660023 -49.81812545948369 -2 1 0
1127 1 8.021104507871096 0.7986794603595114 -49.60473277445123 -1 1 0
4883 1 13.747166550343355 18.10630082262108 -48.30047548109409 -1 -3 1
8801 1 18.872574368283107 0.3386975385439614 -47.231397809442456 -1 2 1
8551 1 0.7879429230000426 0.8166694951036647 -42.10318851263573 0 1 1
4955 1 7.133174258730171 4.003553154766889 -48.99092111093471 3 2 0
5244 1 6.9823029300435016 0.8784951495932746 -46.63821749021902 -1 0 0
4609 1 10.72196906720615 1.3970981626008667 -48.52856509705603 0 0 1
8511 1 12.830539794842974 0.7050613925086936 -46.669047171545536 -2 2 1
1929 1 12.234782803280291 0.762787766060102 -44.08028965569227 0 0 0
5782 1 12.35193051780199 1.6787714405890037 -48.11447449035163 1 4 0
5760 1 13.462207893016995 0.7621238542704488 -47.694254598461974 -1 1 0
1667 1 13.722253558233412 1.9912312918131936 -45.56235203790141 -1 -1 0
1451 1 17.395728850993837 2.3134602815992804 -43.62478413337712 -2 0 0
5781 1 18.974137449362477 18.942841645533253 -45.40112965479353 -2 -1 0
2305 1 1.508862874705442 3.180033440425189 -45.258459220406635 1 1 0
828 1 4.535467438206024 2.1226902639022467 -45.34929110560008 -2 1 0
1427 1 1.2761057022488933 2.005462937812318 -44.37870776176059 0 2 0
4815 1 9.67079247119167 1.6327157200851183 -46.37242268378656 2 -1 1
8450 1 6.22155237520538 3.841688645003318 -42.68041554652918 2 -1 1
1713 1 10.131765039971832 2.209239367357987 -45.04840807322395 -1 -1 0
8756 1 7.26316595954207 3.310354052905354 -45.40607007862106 3 -1 1
1248 1 10.895858561049556 4.891321019473781 -46.43738958632581 0 0 0
4813 1 13.095785614996311 1.0563460778277394 -45.10918408449903 1 0 1