LAMMPS data file via write_data, version 2 Aug 2023, timestep = 100000, units = lj

15264 atoms
2 atom types

0 19.048812623618396 xlo xhi
0 19.048812623618396 ylo yhi
-57.14643787085519 57.14643787085519 zlo zhi

Masses

1 1
2 1

Atoms # atomic

1 2 0 0 -13.587452754855883 0 0 0
2 2 0.3968502629920499 0.3968502629920499 -13.587452754855883 0 0 0
5 2 0.7937005259840998 0 -13.587452754855883 0 0 0
6 2 1.1905507889761497 0.3968502629920499 -13.587452754855883 0 0 0
9 2 1.5874010519681996 0 -13.587452754855883 0 0 0
49 2 0 0.7937005259840998 -13.587452754855883 0 0 0
50 2 0.3968502629920499 1.1905507889761497 -13.587452754855883 0 0 0
53 2 0.7937005259840998 0.7937005259840998 -13.587452754855883 0 0 0
54 2 1.1905507889761497 1.1905507889761497 -13.587452754855883 0 0 0
57 2 1.5874010519681996 0.7937005259840998 -13.587452754855883 0 0 0
97 2 0 1.5874010519681996 -13.587452754855883 0 0 0
101 2 0.7937005259840998 1.5874010519681996 -13.587452754855883 0 0 0
105 2 1.5874010519681996 1.5874010519681996 -13.587452754855883 0 0 0
3 2 0.3968502629920499 0 -13.190602491863833 0 0 0
4 2 0 0.3968502629920499 -13.190602491863833 0 0 0
7 2 1.1905507889761497 0 -13.190602491863833 0 0 0
8 2 0.7937005259840998 0.3968502629920499 -13.190602491863833 0 0 0
12 2 1.5874010519681996 0.3968502629920499 -13.190602491863833 0 0 0
51 2 0.3968502629920499 0.7937005259840998 -13.190602491863833 0 0 0
52 2 0 1.1905507889761497 -13.190602491863833 0 0 0
55 2 1.1905507889761497 0.7937005259840998 -13.190602491863833 0 0 0
56 2 0.7937005259840998 1.1905507889761497 -13.190602491863833 0 0 0
60 2 1.5874010519681996 1.1905507889761497 -13.190602491863833 0 0 0
99 2 0.3968502629920499 1.5874010519681996 -13.190602491863833 0 0 0
103 2 1.1905507889761497 1.5874010519681996 -13.190602491863833 0 0 0
1153 2 0 0 -12.793752228871783 0 0 0
1154 2 0.3968502629920499 0.3968502629920499 -12.793752228871783 0 0 0
1155 2 0.7937005259840998 0 -12.793752228871783 0 0 0
1156 2 1.1905507889761497 0.3968502629920499 -12.793752228871783 0 0 0
1157 2 1.5874010519681996 0 -12.793752228871783 0 0 0
1177 2 0 0.7937005259840998 -12.793752228871783 0 0 0
1178 2 0.3968502629920499 1.1905507889761497 -12.793752228871783 0 0 0
1179 2 0.7937005259840998 0.7937005259840998 -12.793752228871783 0 0 0
1180 2 1.1905507889761497 1.1905507889761497 -12.793752228871783 0 0 0
1181 2 1.5874010519681996 0.7937005259840998 -12.793752228871783 0 0 0
1201 2 0 1.5874010519681996 -12.793752228871783 0 0 0
1203 2 0.7937005259840998 1.5874010519681996 -12.793752228871783 0 0 0
1205 2 1.5874010519681996 1.5874010519681996 -12.793752228871783 0 0 0
10 2 1.9842513149602494 0.3968502629920499 -13.587452754855883 0 0 0
13 2 2.3811015779522995 0 -13.587452754855883 0 0 0
14 2 2.777951840944349 0.3968502629920499 -13.587452754855883 0 0 0
17 2 3.174802103936399 0 -13.587452754855883 0 0 0
18 2 3.5716523669284492 0.3968502629920499 -13.587452754855883 0 0 0
58 2 1.9842513149602494 1.1905507889761497 -13.587452754855883 0 0 0
61 2 2.3811015779522995 0.7937005259840998 -13.587452754855883 0 0 0
62 2 2.777951840944349 1.1905507889761497 -13.587452754855883 0 0 0
65 2 3.174802103936399 0.7937005259840998 -13.587452754855883 0 0 0
66 2 3.5716523669284492 1.1905507889761497 -13.587452754855883 0 0 0
109 2 2.3811015779522995 1.5874010519681996 -13.587452754855883 0 0 0
113 2 3.174802103936399 1.5874010519681996 -13.587452754855883 0 0 0
11 2 1.9842513149602494 0 -13.190602491863833 0 0 0
15 2 2.777951840944349 0 -13.190602491863833 0 0 0
16 2 2.3811015779522995 0.3968502629920499 -13.190602491863833 0 0 0
19 2 3.5716523669284492 0 -13.190602491863833 0 0 0
20 2 3.174802103936399 0.3968502629920499 -13.190602491863833 0 0 0
59 2 1.9842513149602494 0.7937005259840998 -13.190602491863833 0 0 0
63 2 2.777951840944349 0.7937005259840998 -13.190602491863833 0 0 0
64 2 2.3811015779522995 1.1905507889761497 -13.190602491863833 0 0 0
67 2 3.5716523669284492 0.7937005259840998 -13.190602491863833 0 0 0
68 2 3.174802103936399 1.1905507889761497 -13.190602491863833 0 0 0
107 2 1.9842513149602494 1.5874010519681996 -13.190602491863833 0 0 0
111 2 2.777951840944349 1.5874010519681996 -13.190602491863833 0 0 0
115 2 3.5716523669284492 1.5874010519681996 -13.190602491863833 0 0 0
1158 2 1.9842513149602494 0.3968502629920499 -12.793752228871783 0 0 0
1159 2 2.3811015779522995 0 -12.793752228871783 0 0 0
1160 2 2.777951840944349 0.3968502629920499 -12.793752228871783 0 0 0
1161 2 3.174802103936399 0 -12.793752228871783 0 0 0
1162 2 3.5716523669284492 0.3968502629920499 -12.793752228871783 0 0 0
1182 2 1.9842513149602494 1.1905507889761497 -12.793752228871783 0 0 0
1183 2 2.3811015779522995 0.7937005259840998 -12.793752228871783 0 0 0
1184 2 2.777951840944349 1.1905507889761497 -12.793752228871783 0 0 0
1185 2 3.174802103936399 0.7937005259840998 -12.793752228871783 0 0 0
1186 2 3.5716523669284492 1.1905507889761497 -12.793752228871783 0 0 0
1207 2 2.3811015779522995 1.5874010519681996 -12.793752228871783 0 0 0
1209 2 3.174802103936399 1.5874010519681996 -12.793752228871783 0 0 0
21 2 3.968502629920499 0 -13.587452754855883 0 0 0
22 2 4.365352892912549 0.3968502629920499 -13.587452754855883 0 0 0
25 2 4.762203155904599 0 -13.587452754855883 0 0 0
26 2 5.159053418896649 0.3968502629920499 -13.587452754855883 0 0 0
29 2 5.555903681888698 0 -13.587452754855883 0 0 0
69 2 3.968502629920499 0.7937005259840998 -13.587452754855883 0 0 0
70 2 4.365352892912549 1.1905507889761497 -13.587452754855883 0 0 0
73 2 4.762203155904599 0.7937005259840998 -13.587452754855883 0 0 0
74 2 5.159053418896649 1.1905507889761497 -13.587452754855883 0 0 0
77 2 5.555903681888698 0.7937005259840998 -13.587452754855883 0 0 0
117 2 3.968502629920499 1.5874010519681996 -13.587452754855883 0 0 0
121 2 4.762203155904599 1.5874010519681996 -13.587452754855883 0 0 0
125 2 5.555903681888698 1.5874010519681996 -13.587452754855883 0 0 0
23 2 4.365352892912549 0 -13.190602491863833 0 0 0
24 2 3.968502629920499 0.3968502629920499 -13.190602491863833 0 0 0
27 2 5.159053418896649 0 -13.190602491863833 0 0 0
28 2 4.762203155904599 0.3968502629920499 -13.190602491863833 0 0 0
32 2 5.555903681888698 0.3968502629920499 -13.190602491863833 0 0 0
71 2 4.365352892912549 0.7937005259840998 -13.190602491863833 0 0 0
72 2 3.968502629920499 1.1905507889761497 -13.190602491863833 0 0 0
75 2 5.159053418896649 0.7937005259840998 -13.190602491863833 0 0 0
76 2 4.762203155904599 1.1905507889761497 -13.190602491863833 0 0 0
80 2 5.555903681888698 1.1905507889761497 -13.190602491863833 0 0 0
119 2 4.365352892912549 1.5874010519681996 -13.190602491863833 0 0 0
123 2 5.159053418896649 1.5874010519681996 -13.190602491863833 0 0 0
1163 2 3.968502629920499 0 -12.793752228871783 0 0 0
1164 2 4.365352892912549 0.3968502629920499 -12.793752228871783 0 0 0
1165 2 4.762203155904599 0 -12.793752228871783 0 0 0
1166 2 5.159053418896649 0.3968502629920499 -12.793752228871783 0 0 0
1167 2 5.555903681888698 0 -12.793752228871783 0 0 0
1187 2 3.968502629920499 0.7937005259840998 -12.793752228871783 0 0 0
1188 2 4.365352892912549 1.1905507889761497 -12.793752228871783 0 0 0
1189 2 4.762203155904599 0.7937005259840998 -12.793752228871783 0 0 0
1190 2 5.159053418896649 1.1905507889761497 -12.793752228871783 0 0 0
1191 2 5.555903681888698 0.7937005259840998 -12.793752228871783 0 0 0
1211 2 3.968502629920499 1.5874010519681996 -12.793752228871783 0 0 0
1213 2 4.762203155904599 1.5874010519681996 -12.793752228871783 0 0 0
1215 2 5.555903681888698 1.5874010519681996 -12.793752228871783 0 0 0
30 2 5.952753944880748 0.3968502629920499 -13.587452754855883 0 0 0
33 2 6.349604207872798 0 -13.587452754855883 0 0 0
34 2 6.746454470864848 0.3968502629920499 -13.587452754855883 0 0 0
37 2 7.1433047338568985 0 -13.587452754855883 0 0 0
38 2 7.540154996848948 0.3968502629920499 -13.587452754855883 0 0 0
78 2 5.952753944880748 1.1905507889761497 -13.587452754855883 0 0 0
81 2 6.349604207872798 0.7937005259840998 -13.587452754855883 0 0 0
82 2 6.746454470864848 1.1905507889761497 -13.587452754855883 0 0 0
85 2 7.1433047338568985 0.7937005259840998 -13.587452754855883 0 0 0
86 2 7.540154996848948 1.1905507889761497 -13.587452754855883 0 0 0
129 2 6.349604207872798 1.5874010519681996 -13.587452754855883 0 0 0
133 2 7.1433047338568985 1.5874010519681996 -13.587452754855883 0 0 0
31 2 5.952753944880748 0 -13.190602491863833 0 0 0
35 2 6.746454470864848 0 -13.190602491863833 0 0 0
36 2 6.349604207872798 0.3968502629920499 -13.190602491863833 0 0 0
39 2 7.540154996848948 0 -13.190602491863833 0 0 0
40 2 7.1433047338568985 0.3968502629920499 -13.190602491863833 0 0 0
79 2 5.952753944880748 0.7937005259840998 -13.190602491863833 0 0 0
83 2 6.746454470864848 0.7937005259840998 -13.190602491863833 0 0 0
84 2 6.349604207872798 1.1905507889761497 -13.190602491863833 0 0 0
87 2 7.540154996848948 0.7937005259840998 -13.190602491863833 0 0 0
88 2 7.1433047338568985 1.1905507889761497 -13.190602491863833 0 0 0
127 2 5.952753944880748 1.5874010519681996 -13.190602491863833 0 0 0
131 2 6.746454470864848 1.5874010519681996 -13.190602491863833 0 0 0
135 2 7.540154996848948 1.5874010519681996 -13.190602491863833 0 0 0
1168 2 5.952753944880748 0.3968502629920499 -12.793752228871783 0 0 0
1169 2 6.349604207872798 0 -12.793752228871783 0 0 0
1170 2 6.746454470864848 0.3968502629920499 -12.793752228871783 0 0 0
1171 2 7.1433047338568985 0 -12.793752228871783 0 0 0
1172 2 7.540154996848948 0.3968502629920499 -12.793752228871783 0 0 0
1192 2 5.952753944880748 1.1905507889761497 -12.793752228871783 0 0 0
1193 2 6.349604207872798 0.7937005259840998 -12.793752228871783 0 0 0
1194 2 6.746454470864848 1.1905507889761497 -12.793752228871783 0 0 0
1195 2 7.1433047338568985 0.7937005259840998 -12.793752228871783 0 0 0
1196 2 7.540154996848948 1.1905507889761497 -12.793752228871783 0 0 0
1217 2 6.349604207872798 1.5874010519681996 -12.793752228871783 0 0 0
1219 2 7.1433047338568985 1.5874010519681996 -12.793752228871783 0 0 0
41 2 7.937005259840998 0 -13.587452754855883 0 0 0
42 2 8.333855522833048 0.3968502629920499 -13.587452754855883 0 0 0
45 2 8.730705785825098 0 -13.587452754855883 0 0 0
46 2 9.127556048817148 0.3968502629920499 -13.587452754855883 0 0 0
89 2 7.937005259840998 0.7937005259840998 -13.587452754855883 0 0 0
90 2 8.333855522833048 1.1905507889761497 -13.587452754855883 0 0 0
93 2 8.730705785825098 0.7937005259840998 -13.587452754855883 0 0 0
94 2 9.127556048817148 1.1905507889761497 -13.587452754855883 0 0 0
137 2 7.937005259840998 1.5874010519681996 -13.587452754855883 0 0 0
141 2 8.730705785825098 1.5874010519681996 -13.587452754855883 0 0 0
43 2 8.333855522833048 0 -13.190602491863833 0 0 0
44 2 7.937005259840998 0.3968502629920499 -13.190602491863833 0 0 0
47 2 9.127556048817148 0 -13.190602491863833 0 0 0
48 2 8.730705785825098 0.3968502629920499 -13.190602491863833 0 0 0
91 2 8.333855522833048 0.7937005259840998 -13.190602491863833 0 0 0
92 2 7.937005259840998 1.1905507889761497 -13.190602491863833 0 0 0
95 2 9.127556048817148 0.7937005259840998 -13.190602491863833 0 0 0
96 2 8.730705785825098 1.1905507889761497 -13.190602491863833 0 0 0
139 2 8.333855522833048 1.5874010519681996 -13.190602491863833 0 0 0
143 2 9.127556048817148 1.5874010519681996 -13.190602491863833 0 0 0
1173 2 7.937005259840998 0 -12.793752228871783 0 0 0
1174 2 8.333855522833048 0.3968502629920499 -12.793752228871783 0 0 0
1175 2 8.730705785825098 0 -12.793752228871783 0 0 0
1176 2 9.127556048817148 0.3968502629920499 -12.793752228871783 0 0 0
1197 2 7.937005259840998 0.7937005259840998 -12.793752228871783 0 0 0
1198 2 8.333855522833048 1.1905507889761497 -12.793752228871783 0 0 0
1199 2 8.730705785825098 0.7937005259840998 -12.793752228871783 0 0 0
1200 2 9.127556048817148 1.1905507889761497 -12.793752228871783 0 0 0
1221 2 7.937005259840998 1.5874010519681996 -12.793752228871783 0 0 0
1223 2 8.730705785825098 1.5874010519681996 -12.793752228871783 0 0 0
98 2 0.3968502629920499 1.9842513149602494 -13.587452754855883 0 0 0
102 2 1.1905507889761497 1.9842513149602494 -13.587452754855883 0 0 0
145 2 0 2.3811015779522995 -13.587452754855883 0 0 0
146 2 0.3968502629920499 2.777951840944349 -13.587452754855883 0 0 0
149 2 0.7937005259840998 2.3811015779522995 -13.587452754855883 0 0 0
150 2 1.1905507889761497 2.777951840944349 -13.587452754855883 0 0 0
153 2 1.5874010519681996 2.3811015779522995 -13.587452754855883 0 0 0
193 2 0 3.174802103936399 -13.587452754855883 0 0 0
194 2 0.3968502629920499 3.5716523669284492 -13.587452754855883 0 0 0
197 2 0.7937005259840998 3.174802103936399 -13.587452754855883 0 0 0
198 2 1.1905507889761497 3.5716523669284492 -13.587452754855883 0 0 0
201 2 1.5874010519681996 3.174802103936399 -13.587452754855883 0 0 0
100 2 0 1.9842513149602494 -13.190602491863833 0 0 0
104 2 0.7937005259840998 1.9842513149602494 -13.190602491863833 0 0 0
108 2 1.5874010519681996 1.9842513149602494 -13.190602491863833 0 0 0
147 2 0.3968502629920499 2.3811015779522995 -13.190602491863833 0 0 0
148 2 0 2.777951840944349 -13.190602491863833 0 0 0
151 2 1.1905507889761497 2.3811015779522995 -13.190602491863833 0 0 0
152 2 0.7937005259840998 2.777951840944349 -13.190602491863833 0 0 0
156 2 1.5874010519681996 2.777951840944349 -13.190602491863833 0 0 0
195 2 0.3968502629920499 3.174802103936399 -13.190602491863833 0 0 0
196 2 0 3.5716523669284492 -13.190602491863833 0 0 0
199 2 1.1905507889761497 3.174802103936399 -13.190602491863833 0 0 0
200 2 0.7937005259840998 3.5716523669284492 -13.190602491863833 0 0 0
204 2 1.5874010519681996 3.5716523669284492 -13.190602491863833 0 0 0
1202 2 0.3968502629920499 1.9842513149602494 -12.793752228871783 0 0 0
1204 2 1.1905507889761497 1.9842513149602494 -12.793752228871783 0 0 0
1225 2 0 2.3811015779522995 -12.793752228871783 0 0 0
1226 2 0.3968502629920499 2.777951840944349 -12.793752228871783 0 0 0
1227 2 0.7937005259840998 2.3811015779522995 -12.793752228871783 0 0 0
1228 2 1.1905507889761497 2.777951840944349 -12.793752228871783 0 0 0
1229 2 1.5874010519681996 2.3811015779522995 -12.793752228871783 0 0 0
1249 2 0 3.174802103936399 -12.793752228871783 0 0 0
1250 2 0.3968502629920499 3.5716523669284492 -12.793752228871783 0 0 0
1251 2 0.7937005259840998 3.174802103936399 -12.793752228871783 0 0 0
1252 2 1.1905507889761497 3.5716523669284492 -12.793752228871783 0 0 0
1253 2 1.5874010519681996 3.174802103936399 -12.793752228871783 0 0 0
106 2 1.9842513149602494 1.9842513149602494 -13.587452754855883 0 0 0
110 2 2.777951840944349 1.9842513149602494 -13.587452754855883 0 0 0
114 2 3.5716523669284492 1.9842513149602494 -13.587452754855883 0 0 0
154 2 1.9842513149602494 2.777951840944349 -13.587452754855883 0 0 0
157 2 2.3811015779522995 2.3811015779522995 -13.587452754855883 0 0 0
158 2 2.777951840944349 2.777951840944349 -13.587452754855883 0 0 0
161 2 3.174802103936399 2.3811015779522995 -13.587452754855883 0 0 0
162 2 3.5716523669284492 2.777951840944349 -13.587452754855883 0 0 0
202 2 1.9842513149602494 3.5716523669284492 -13.587452754855883 0 0 0
205 2 2.3811015779522995 3.174802103936399 -13.587452754855883 0 0 0
206 2 2.777951840944349 3.5716523669284492 -13.587452754855883 0 0 0
209 2 3.174802103936399 3.174802103936399 -13.587452754855883 0 0 0
210 2 3.5716523669284492 3.5716523669284492 -13.587452754855883 0 0 0
112 2 2.3811015779522995 1.9842513149602494 -13.190602491863833 0 0 0
116 2 3.174802103936399 1.9842513149602494 -13.190602491863833 0 0 0
155 2 1.9842513149602494 2.3811015779522995 -13.190602491863833 0 0 0
159 2 2.777951840944349 2.3811015779522995 -13.190602491863833 0 0 0
160 2 2.3811015779522995 2.777951840944349 -13.190602491863833 0 0 0
163 2 3.5716523669284492 2.3811015779522995 -13.190602491863833 0 0 0
164 2 3.174802103936399 2.777951840944349 -13.190602491863833 0 0 0
203 2 1.9842513149602494 3.174802103936399 -13.190602491863833 0 0 0
207 2 2.777951840944349 3.174802103936399 -13.190602491863833 0 0 0
208 2 2.3811015779522995 3.5716523669284492 -13.190602491863833 0 0 0
211 2 3.5716523669284492 3.174802103936399 -13.190602491863833 0 0 0
212 2 3.174802103936399 3.5716523669284492 -13.190602491863833 0 0 0
1206 2 1.9842513149602494 1.9842513149602494 -12.793752228871783 0 0 0
1208 2 2.777951840944349 1.9842513149602494 -12.793752228871783 0 0 0
1210 2 3.5716523669284492 1.9842513149602494 -12.793752228871783 0 0 0
1230 2 1.9842513149602494 2.777951840944349 -12.793752228871783 0 0 0
1231 2 2.3811015779522995 2.3811015779522995 -12.793752228871783 0 0 0
1232 2 2.777951840944349 2.777951840944349 -12.793752228871783 0 0 0
1233 2 3.174802103936399 2.3811015779522995 -12.793752228871783 0 0 0
1234 2 3.5716523669284492 2.777951840944349 -12.793752228871783 0 0 0
1254 2 1.9842513149602494 3.5716523669284492 -12.793752228871783 0 0 0
1255 2 2.3811015779522995 3.174802103936399 -12.793752228871783 0 0 0
1256 2 2.777951840944349 3.5716523669284492 -12.793752228871783 0 0 0
1257 2 3.174802103936399 3.174802103936399 -12.793752228871783 0 0 0
1258 2 3.5716523669284492 3.5716523669284492 -12.793752228871783 0 0 0
118 2 4.365352892912549 1.9842513149602494 -13.587452754855883 0 0 0
122 2 5.159053418896649 1.9842513149602494 -13.587452754855883 0 0 0
165 2 3.968502629920499 2.3811015779522995 -13.587452754855883 0 0 0
166 2 4.365352892912549 2.777951840944349 -13.587452754855883 0 0 0
169 2 4.762203155904599 2.3811015779522995 -13.587452754855883 0 0 0
170 2 5.159053418896649 2.777951840944349 -13.587452754855883 0 0 0
173 2 5.555903681888698 2.3811015779522995 -13.587452754855883 0 0 0
213 2 3.968502629920499 3.174802103936399 -13.587452754855883 0 0 0
214 2 4.365352892912549 3.5716523669284492 -13.587452754855883 0 0 0
217 2 4.762203155904599 3.174802103936399 -13.587452754855883 0 0 0
218 2 5.159053418896649 3.5716523669284492 -13.587452754855883 0 0 0
221 2 5.555903681888698 3.174802103936399 -13.587452754855883 0 0 0
120 2 3.968502629920499 1.9842513149602494 -13.190602491863833 0 0 0
124 2 4.762203155904599 1.9842513149602494 -13.190602491863833 0 0 0
128 2 5.555903681888698 1.9842513149602494 -13.190602491863833 0 0 0
167 2 4.365352892912549 2.3811015779522995 -13.190602491863833 0 0 0
168 2 3.968502629920499 2.777951840944349 -13.190602491863833 0 0 0
171 2 5.159053418896649 2.3811015779522995 -13.190602491863833 0 0 0
172 2 4.762203155904599 2.777951840944349 -13.190602491863833 0 0 0
176 2 5.555903681888698 2.777951840944349 -13.190602491863833 0 0 0
215 2 4.365352892912549 3.174802103936399 -13.190602491863833 0 0 0
216 2 3.968502629920499 3.5716523669284492 -13.190602491863833 0 0 0
219 2 5.159053418896649 3.174802103936399 -13.190602491863833 0 0 0
220 2 4.762203155904599 3.5716523669284492 -13.190602491863833 0 0 0
224 2 5.555903681888698 3.5716523669284492 -13.190602491863833 0 0 0
1212 2 4.365352892912549 1.9842513149602494 -12.793752228871783 0 0 0
1214 2 5.159053418896649 1.9842513149602494 -12.793752228871783 0 0 0
1235 2 3.968502629920499 2.3811015779522995 -12.793752228871783 0 0 0
1236 2 4.365352892912549 2.777951840944349 -12.793752228871783 0 0 0
1237 2 4.762203155904599 2.3811015779522995 -12.793752228871783 0 0 0
1238 2 5.159053418896649 2.777951840944349 -12.793752228871783 0 0 0
1239 2 5.555903681888698 2.3811015779522995 -12.793752228871783 0 0 0
1259 2 3.968502629920499 3.174802103936399 -12.793752228871783 0 0 0
1260 2 4.365352892912549 3.5716523669284492 -12.793752228871783 0 0 0
1261 2 4.762203155904599 3.174802103936399 -12.793752228871783 0 0 0
1262 2 5.159053418896649 3.5716523669284492 -12.793752228871783 0 0 0
1263 2 5.555903681888698 3.174802103936399 -12.793752228871783 0 0 0
126 2 5.952753944880748 1.9842513149602494 -13.587452754855883 0 0 0
130 2 6.746454470864848 1.9842513149602494 -13.587452754855883 0 0 0
134 2 7.540154996848948 1.9842513149602494 -13.587452754855883 0 0 0
174 2 5.952753944880748 2.777951840944349 -13.587452754855883 0 0 0
177 2 6.349604207872798 2.3811015779522995 -13.587452754855883 0 0 0
178 2 6.746454470864848 2.777951840944349 -13.587452754855883 0 0 0
181 2 7.1433047338568985 2.3811015779522995 -13.587452754855883 0 0 0
182 2 7.540154996848948 2.777951840944349 -13.587452754855883 0 0 0
222 2 5.952753944880748 3.5716523669284492 -13.587452754855883 0 0 0
225 2 6.349604207872798 3.174802103936399 -13.587452754855883 0 0 0
226 2 6.746454470864848 3.5716523669284492 -13.587452754855883 0 0 0
229 2 7.1433047338568985 3.174802103936399 -13.587452754855883 0 0 0
230 2 7.540154996848948 3.5716523669284492 -13.587452754855883 0 0 0
132 2 6.349604207872798 1.9842513149602494 -13.190602491863833 0 0 0
136 2 7.1433047338568985 1.9842513149602494 -13.190602491863833 0 0 0
175 2 5.952753944880748 2.3811015779522995 -13.190602491863833 0 0 0
179 2 6.746454470864848 2.3811015779522995 -13.190602491863833 0 0 0
180 2 6.349604207872798 2.777951840944349 -13.190602491863833 0 0 0
183 2 7.540154996848948 2.3811015779522995 -13.190602491863833 0 0 0
184 2 7.1433047338568985 2.777951840944349 -13.190602491863833 0 0 0
223 2 5.952753944880748 3.174802103936399 -13.190602491863833 0 0 0
227 2 6.746454470864848 3.174802103936399 -13.190602491863833 0 0 0
228 2 6.349604207872798 3.5716523669284492 -13.190602491863833 0 0 0
231 2 7.540154996848948 3.174802103936399 -13.190602491863833 0 0 0
232 2 7.1433047338568985 3.5716523669284492 -13.190602491863833 0 0 0
1216 2 5.952753944880748 1.9842513149602494 -12.793752228871783 0 0 0
1218 2 6.746454470864848 1.9842513149602494 -12.793752228871783 0 0 0
1220 2 7.540154996848948 1.9842513149602494 -12.793752228871783 0 0 0
1240 2 5.952753944880748 2.777951840944349 -12.793752228871783 0 0 0
1241 2 6.349604207872798 2.3811015779522995 -12.793752228871783 0 0 0
1242 2 6.746454470864848 2.777951840944349 -12.793752228871783 0 0 0
1243 2 7.1433047338568985 2.3811015779522995 -12.793752228871783 0 0 0
1244 2 7.540154996848948 2.777951840944349 -12.793752228871783 0 0 0
1264 2 5.952753944880748 3.5716523669284492 -12.793752228871783 0 0 0
1265 2 6.349604207872798 3.174802103936399 -12.793752228871783 0 0 0
1266 2 6.746454470864848 3.5716523669284492 -12.793752228871783 0 0 0
1267 2 7.1433047338568985 3.174802103936399 -12.793752228871783 0 0 0
1268 2 7.540154996848948 3.5716523669284492 -12.793752228871783 0 0 0
138 2 8.333855522833048 1.9842513149602494 -13.587452754855883 0 0 0
142 2 9.127556048817148 1.9842513149602494 -13.587452754855883 0 0 0
185 2 7.937005259840998 2.3811015779522995 -13.587452754855883 0 0 0
186 2 8.333855522833048 2.777951840944349 -13.587452754855883 0 0 0
189 2 8.730705785825098 2.3811015779522995 -13.587452754855883 0 0 0
190 2 9.127556048817148 2.777951840944349 -13.587452754855883 0 0 0
233 2 7.937005259840998 3.174802103936399 -13.587452754855883 0 0 0
234 2 8.333855522833048 3.5716523669284492 -13.587452754855883 0 0 0
237 2 8.730705785825098 3.174802103936399 -13.587452754855883 0 0 0
238 2 9.127556048817148 3.5716523669284492 -13.587452754855883 0 0 0
140 2 7.937005259840998 1.9842513149602494 -13.190602491863833 0 0 0
144 2 8.730705785825098 1.9842513149602494 -13.190602491863833 0 0 0
187 2 8.333855522833048 2.3811015779522995 -13.190602491863833 0 0 0
188 2 7.937005259840998 2.777951840944349 -13.190602491863833 0 0 0
191 2 9.127556048817148 2.3811015779522995 -13.190602491863833 0 0 0
192 2 8.730705785825098 2.777951840944349 -13.190602491863833 0 0 0
235 2 8.333855522833048 3.174802103936399 -13.190602491863833 0 0 0
236 2 7.937005259840998 3.5716523669284492 -13.190602491863833 0 0 0
239 2 9.127556048817148 3.174802103936399 -13.190602491863833 0 0 0
240 2 8.730705785825098 3.5716523669284492 -13.190602491863833 0 0 0
1222 2 8.333855522833048 1.9842513149602494 -12.793752228871783 0 0 0
1224 2 9.127556048817148 1.9842513149602494 -12.793752228871783 0 0 0
1245 2 7.937005259840998 2.3811015779522995 -12.793752228871783 0 0 0
1246 2 8.333855522833048 2.777951840944349 -12.793752228871783 0 0 0
1247 2 8.730705785825098 2.3811015779522995 -12.793752228871783 0 0 0
1248 2 9.127556048817148 2.777951840944349 -12.793752228871783 0 0 0
1269 2 7.937005259840998 3.174802103936399 -12.793752228871783 0 0 0
1270 2 8.333855522833048 3.5716523669284492 -12.793752228871783 0 0 0
1271 2 8.730705785825098 3.174802103936399 -12.793752228871783 0 0 0
1272 2 9.127556048817148 3.5716523669284492 -12.793752228871783 0 0 0
241 2 0 3.968502629920499 -13.587452754855883 0 0 0
242 2 0.3968502629920499 4.365352892912549 -13.587452754855883 0 0 0
245 2 0.7937005259840998 3.968502629920499 -13.587452754855883 0 0 0
246 2 1.1905507889761497 4.365352892912549 -13.587452754855883 0 0 0
249 2 1.5874010519681996 3.968502629920499 -13.587452754855883 0 0 0
289 2 0 4.762203155904599 -13.587452754855883 0 0 0
290 2 0.3968502629920499 5.159053418896649 -13.587452754855883 0 0 0
293 2 0.7937005259840998 4.762203155904599 -13.587452754855883 0 0 0
294 2 1.1905507889761497 5.159053418896649 -13.587452754855883 0 0 0
297 2 1.5874010519681996 4.762203155904599 -13.587452754855883 0 0 0
337 2 0 5.555903681888698 -13.587452754855883 0 0 0
341 2 0.7937005259840998 5.555903681888698 -13.587452754855883 0 0 0
345 2 1.5874010519681996 5.555903681888698 -13.587452754855883 0 0 0
243 2 0.3968502629920499 3.968502629920499 -13.190602491863833 0 0 0
244 2 0 4.365352892912549 -13.190602491863833 0 0 0
247 2 1.1905507889761497 3.968502629920499 -13.190602491863833 0 0 0
248 2 0.7937005259840998 4.365352892912549 -13.190602491863833 0 0 0
252 2 1.5874010519681996 4.365352892912549 -13.190602491863833 0 0 0
291 2 0.3968502629920499 4.762203155904599 -13.190602491863833 0 0 0
292 2 0 5.159053418896649 -13.190602491863833 0 0 0
295 2 1.1905507889761497 4.762203155904599 -13.190602491863833 0 0 0
296 2 0.7937005259840998 5.159053418896649 -13.190602491863833 0 0 0
300 2 1.5874010519681996 5.159053418896649 -13.190602491863833 0 0 0
339 2 0.3968502629920499 5.555903681888698 -13.190602491863833 0 0 0
343 2 1.1905507889761497 5.555903681888698 -13.190602491863833 0 0 0
1273 2 0 3.968502629920499 -12.793752228871783 0 0 0
1274 2 0.3968502629920499 4.365352892912549 -12.793752228871783 0 0 0
1275 2 0.7937005259840998 3.968502629920499 -12.793752228871783 0 0 0
1276 2 1.1905507889761497 4.365352892912549 -12.793752228871783 0 0 0
1277 2 1.5874010519681996 3.968502629920499 -12.793752228871783 0 0 0
1297 2 0 4.762203155904599 -12.793752228871783 0 0 0
1298 2 0.3968502629920499 5.159053418896649 -12.793752228871783 0 0 0
1299 2 0.7937005259840998 4.762203155904599 -12.793752228871783 0 0 0
1300 2 1.1905507889761497 5.159053418896649 -12.793752228871783 0 0 0
1301 2 1.5874010519681996 4.762203155904599 -12.793752228871783 0 0 0
1321 2 0 5.555903681888698 -12.793752228871783 0 0 0
1323 2 0.7937005259840998 5.555903681888698 -12.793752228871783 0 0 0
1325 2 1.5874010519681996 5.555903681888698 -12.793752228871783 0 0 0
250 2 1.9842513149602494 4.365352892912549 -13.587452754855883 0 0 0
253 2 2.3811015779522995 3.968502629920499 -13.587452754855883 0 0 0
254 2 2.777951840944349 4.365352892912549 -13.587452754855883 0 0 0
257 2 3.174802103936399 3.968502629920499 -13.587452754855883 0 0 0
258 2 3.5716523669284492 4.365352892912549 -13.587452754855883 0 0 0
298 2 1.9842513149602494 5.159053418896649 -13.587452754855883 0 0 0
301 2 2.3811015779522995 4.762203155904599 -13.587452754855883 0 0 0
302 2 2.777951840944349 5.159053418896649 -13.587452754855883 0 0 0
305 2 3.174802103936399 4.762203155904599 -13.587452754855883 0 0 0
306 2 3.5716523669284492 5.159053418896649 -13.587452754855883 0 0 0
349 2 2.3811015779522995 5.555903681888698 -13.587452754855883 0 0 0
353 2 3.174802103936399 5.555903681888698 -13.587452754855883 0 0 0
251 2 1.9842513149602494 3.968502629920499 -13.190602491863833 0 0 0
255 2 2.777951840944349 3.968502629920499 -13.190602491863833 0 0 0
256 2 2.3811015779522995 4.365352892912549 -13.190602491863833 0 0 0
259 2 3.5716523669284492 3.968502629920499 -13.190602491863833 0 0 0
260 2 3.174802103936399 4.365352892912549 -13.190602491863833 0 0 0
299 2 1.9842513149602494 4.762203155904599 -13.190602491863833 0 0 0
303 2 2.777951840944349 4.762203155904599 -13.190602491863833 0 0 0
304 2 2.3811015779522995 5.159053418896649 -13.190602491863833 0 0 0
307 2 3.5716523669284492 4.762203155904599 -13.190602491863833 0 0 0
308 2 3.174802103936399 5.159053418896649 -13.190602491863833 0 0 0
347 2 1.9842513149602494 5.555903681888698 -13.190602491863833 0 0 0
351 2 2.777951840944349 5.555903681888698 -13.190602491863833 0 0 0
355 2 3.5716523669284492 5.555903681888698 -13.190602491863833 0 0 0
1278 2 1.9842513149602494 4.365352892912549 -12.793752228871783 0 0 0
1279 2 2.3811015779522995 3.968502629920499 -12.793752228871783 0 0 0
1280 2 2.777951840944349 4.365352892912549 -12.793752228871783 0 0 0
1281 2 3.174802103936399 3.968502629920499 -12.793752228871783 0 0 0
1282 2 3.5716523669284492 4.365352892912549 -12.793752228871783 0 0 0
1302 2 1.9842513149602494 5.159053418896649 -12.793752228871783 0 0 0
1303 2 2.3811015779522995 4.762203155904599 -12.793752228871783 0 0 0
1304 2 2.777951840944349 5.159053418896649 -12.793752228871783 0 0 0
1305 2 3.174802103936399 4.762203155904599 -12.793752228871783 0 0 0
1306 2 3.5716523669284492 5.159053418896649 -12.793752228871783 0 0 0
1327 2 2.3811015779522995 5.555903681888698 -12.793752228871783 0 0 0
1329 2 3.174802103936399 5.555903681888698 -12.793752228871783 0 0 0
261 2 3.968502629920499 3.968502629920499 -13.587452754855883 0 0 0
262 2 4.365352892912549 4.365352892912549 -13.587452754855883 0 0 0
265 2 4.762203155904599 3.968502629920499 -13.587452754855883 0 0 0
266 2 5.159053418896649 4.365352892912549 -13.587452754855883 0 0 0
269 2 5.555903681888698 3.968502629920499 -13.587452754855883 0 0 0
309 2 3.968502629920499 4.762203155904599 -13.587452754855883 0 0 0
310 2 4.365352892912549 5.159053418896649 -13.587452754855883 0 0 0
313 2 4.762203155904599 4.762203155904599 -13.587452754855883 0 0 0
314 2 5.159053418896649 5.159053418896649 -13.587452754855883 0 0 0