LAMMPS data file via write_data, version 2 Aug 2023, timestep = 100000, units = lj

8544 atoms
2 atom types

0 19.048812623618414 xlo xhi
0 19.048812623618414 ylo yhi
-57.14643787085524 57.14643787085524 zlo zhi

Masses

1 1
2 1

Atoms # atomic

1 2 0 0 -17.77456408642882 0 0 0
2 2 2.3811015779523017 2.3811015779523017 -17.77456408642882 0 0 0
5 2 4.762203155904603 0 -17.77456408642882 0 0 0
6 2 7.143304733856905 2.3811015779523017 -17.77456408642882 0 0 0
9 2 9.524406311809207 0 -17.77456408642882 0 0 0
10 2 11.905507889761509 2.3811015779523017 -17.77456408642882 0 0 0
13 2 14.28660946771381 0 -17.77456408642882 0 0 0
14 2 16.667711045666113 2.3811015779523017 -17.77456408642882 0 0 0
17 2 0 4.762203155904603 -17.77456408642882 0 0 0
21 2 4.762203155904603 4.762203155904603 -17.77456408642882 0 0 0
25 2 9.524406311809207 4.762203155904603 -17.77456408642882 0 0 0
29 2 14.28660946771381 4.762203155904603 -17.77456408642882 0 0 0
18 2 2.3811015779523017 7.143304733856905 -17.77456408642882 0 0 0
22 2 7.143304733856905 7.143304733856905 -17.77456408642882 0 0 0
26 2 11.905507889761509 7.143304733856905 -17.77456408642882 0 0 0
30 2 16.667711045666113 7.143304733856905 -17.77456408642882 0 0 0
33 2 0 9.524406311809207 -17.77456408642882 0 0 0
34 2 2.3811015779523017 11.905507889761509 -17.77456408642882 0 0 0
37 2 4.762203155904603 9.524406311809207 -17.77456408642882 0 0 0
38 2 7.143304733856905 11.905507889761509 -17.77456408642882 0 0 0
41 2 9.524406311809207 9.524406311809207 -17.77456408642882 0 0 0
42 2 11.905507889761509 11.905507889761509 -17.77456408642882 0 0 0
45 2 14.28660946771381 9.524406311809207 -17.77456408642882 0 0 0
46 2 16.667711045666113 11.905507889761509 -17.77456408642882 0 0 0
49 2 0 14.28660946771381 -17.77456408642882 0 0 0
53 2 4.762203155904603 14.28660946771381 -17.77456408642882 0 0 0
57 2 9.524406311809207 14.28660946771381 -17.77456408642882 0 0 0
61 2 14.28660946771381 14.28660946771381 -17.77456408642882 0 0 0
50 2 2.3811015779523017 16.667711045666113 -17.77456408642882 0 0 0
54 2 7.143304733856905 16.667711045666113 -17.77456408642882 0 0 0
58 2 11.905507889761509 16.667711045666113 -17.77456408642882 0 0 0
62 2 16.667711045666113 16.667711045666113 -17.77456408642882 0 0 0
3 2 2.3811015779523017 0 -15.393462508477391 0 0 0
4 2 0 2.3811015779523017 -15.393462508477391 0 0 0
8 2 4.762203155904603 2.3811015779523017 -15.393462508477391 0 0 0
7 2 7.143304733856905 0 -15.393462508477391 0 0 0
11 2 11.905507889761509 0 -15.393462508477391 0 0 0
12 2 9.524406311809207 2.3811015779523017 -15.393462508477391 0 0 0
16 2 14.28660946771381 2.3811015779523017 -15.393462508477391 0 0 0
15 2 16.667711045666113 0 -15.393462508477391 0 0 0
19 2 2.3811015779523017 4.762203155904603 -15.393462508477391 0 0 0
23 2 7.143304733856905 4.762203155904603 -15.393462508477391 0 0 0
27 2 11.905507889761509 4.762203155904603 -15.393462508477391 0 0 0
31 2 16.667711045666113 4.762203155904603 -15.393462508477391 0 0 0
20 2 0 7.143304733856905 -15.393462508477391 0 0 0
24 2 4.762203155904603 7.143304733856905 -15.393462508477391 0 0 0
28 2 9.524406311809207 7.143304733856905 -15.393462508477391 0 0 0
32 2 14.28660946771381 7.143304733856905 -15.393462508477391 0 0 0
35 2 2.3811015779523017 9.524406311809207 -15.393462508477391 0 0 0
36 2 0 11.905507889761509 -15.393462508477391 0 0 0
40 2 4.762203155904603 11.905507889761509 -15.393462508477391 0 0 0
39 2 7.143304733856905 9.524406311809207 -15.393462508477391 0 0 0
43 2 11.905507889761509 9.524406311809207 -15.393462508477391 0 0 0
44 2 9.524406311809207 11.905507889761509 -15.393462508477391 0 0 0
48 2 14.28660946771381 11.905507889761509 -15.393462508477391 0 0 0
47 2 16.667711045666113 9.524406311809207 -15.393462508477391 0 0 0
51 2 2.3811015779523017 14.28660946771381 -15.393462508477391 0 0 0
55 2 7.143304733856905 14.28660946771381 -15.393462508477391 0 0 0
59 2 11.905507889761509 14.28660946771381 -15.393462508477391 0 0 0
63 2 16.667711045666113 14.28660946771381 -15.393462508477391 0 0 0
52 2 0 16.667711045666113 -15.393462508477391 0 0 0
56 2 4.762203155904603 16.667711045666113 -15.393462508477391 0 0 0
60 2 9.524406311809207 16.667711045666113 -15.393462508477391 0 0 0
64 2 14.28660946771381 16.667711045666113 -15.393462508477391 0 0 0
65 2 0 0 -13.012360930525091 0 0 0
66 2 2.3811015779523017 2.3811015779523017 -13.012360930525091 0 0 0
242 1 0.5102614659282818 2.921811054506647 -13.541803889357523 0 0 0
248 1 0.33167569969837823 1.9290869101231274 -13.438535829946929 0 0 0
205 1 2.7865100387641677 0.26275022622504723 -13.488265800647278 0 0 0
732 1 1.8184620414963604 0.5329180068721225 -13.514135405243481 0 1 0
865 1 0.46502996931428875 2.708827228781394 -12.51785533996688 0 0 0
193 1 0.6237055243117055 1.6918773056005256 -12.157920103895256 0 0 0
245 1 2.920429614274838 0.5969210150286175 -12.231478132993228 0 0 0
199 1 1.9019929854051294 0.5017436461486392 -12.318093789046744 0 0 0
1360 1 2.529582876385804 1.1576282204939345 -11.319431876228577 0 0 0
1264 1 1.3934854433541457 1.240946365145505 -11.67985582413818 0 1 0
821 1 3.507506982542009 1.358304277789399 -11.626432962848096 0 0 0
67 2 4.762203155904603 0 -13.012360930525091 0 0 0
250 1 4.381349571766409 2.844633335707013 -12.505345869270617 0 0 0
254 1 5.160991305916473 1.9769107375744628 -12.848262473978586 0 0 0
251 1 4.320163030792025 2.0457335548980975 -13.464286568377785 0 0 0
257 1 5.226739099149009 2.8248659051265763 -13.467736631210142 0 0 0
881 1 4.2709203670210005 1.859785603248352 -12.357545988705905 0 0 0
782 1 5.449150313483967 1.5873435208381532 -11.917813603223419 0 0 0
875 1 6.159213624053064 0.8242110282266516 -11.881024596000264 0 0 0
827 1 5.340621760446044 2.759870121353204 -12.191591518107609 0 0 0
874 1 7.6764660105789755 0.5444130991917822 -12.34367927590543 0 0 0
68 2 7.143304733856905 2.3811015779523017 -13.012360930525091 0 0 0
213 1 6.754650876110932 0.3298338118973726 -12.646848470282395 0 0 0
738 1 7.569978922006645 0.4656936726647033 -13.344948118884606 0 1 0
841 1 9.141663906388658 2.8276785089212977 -13.352836306628753 0 0 0
315 1 9.163190732253014 1.9964361559472814 -12.430500303055235 0 0 0
259 1 8.378250370529916 1.309705130720443 -11.841731327294436 0 0 0
313 1 8.954037608424667 1.8149798407576114 -13.566775812054985 0 0 0
939 1 9.712633793916721 2.5334224482425256 -11.692256950575509 0 0 0
832 1 7.278098176302426 1.1430127682358502 -11.446691166370593 0 0 0
306 1 9.918851895293566 2.66545738447668 -12.702119057633007 0 0 0
272 1 9.966392484693849 1.961678010840448 -13.440116577330123 0 0 0
69 2 9.524406311809207 0 -13.012360930525091 0 0 0
70 2 11.905507889761509 2.3811015779523017 -13.012360930525091 0 0 0
750 1 12.3991783531536 0.4855613483032055 -13.49563151274704 0 1 0
217 1 11.485371838410956 0.4244730659205923 -12.532828636077696 0 0 0
271 1 10.138981746582099 1.775642089438496 -12.23670468874894 0 0 0
269 1 10.864622391678617 1.0197469717229473 -11.933505411640333 0 0 0
221 1 12.4786123039611 0.4765404522711393 -12.32442336353475 0 0 0
275 1 11.973004776668247 19.023615405515613 -11.575820519580896 0 -1 0
936 1 13.109832465433628 1.2410661112581312 -11.885905750987341 0 0 0
71 2 14.28660946771381 0 -13.012360930525091 0 0 0
277 1 14.617762633078748 2.5330453120442042 -13.13062541114467 0 0 0
278 1 14.586013059748497 1.9977622945517386 -12.081863165616056 0 0 0
325 1 13.845042746277679 1.9091158889406994 -13.466179908489082 0 0 0
328 1 13.443994633343301 2.141669123850967 -11.52041476849933 0 0 0
329 1 13.773501928903084 2.9056725429767707 -13.539636585354252 0 0 0
807 1 13.821952479751141 2.641826593934148 -12.37459187576742 0 0 0
860 1 15.495142492688469 1.1799106791770777 -11.853406301358739 0 0 0
1896 1 14.7024814223363 2.026003161398432 -11.063053592984563 0 1 0
1918 1 14.842386878608675 3.144905177735986 -11.907445527126757 0 1 0
283 1 18.798325884825335 1.730951085311153 -11.699383261501636 0 0 0
907 1 16.14715091178833 0.5132922532015293 -12.318028115491877 0 0 0
241 1 18.577108302528544 2.7738676475152033 -13.490113584948471 -1 0 0
286 1 18.47886868385662 2.8313801343959066 -12.156084174488171 0 0 0
72 2 16.667711045666113 2.3811015779523017 -13.012360930525091 0 0 0
281 1 17.187021340784334 0.4904746254050436 -12.423691984547588 0 0 0
243 1 18.58659387243179 1.965592150789957 -12.642015136232262 -1 0 0
806 1 17.811432381197204 1.1525556372804175 -11.802740424881712 0 0 0
234 1 16.16957438472297 0.5106675599459032 -13.476001204201834 0 0 0
233 1 17.202155780063524 0.5008126421084981 -13.505349833982265 0 0 0
765 1 16.877358170657164 0.7650557200171718 -11.466911709537996 0 1 0
859 1 15.975350614474227 1.1863073355263123 -10.938006277087469 0 0 0
73 2 0 4.762203155904603 -13.012360930525091 0 0 0
294 1 2.777325885392754 4.343333746326522 -13.234843696248369 0 0 0
345 1 2.8089174201963902 5.225974951265976 -12.382016922683148 0 0 0
338 1 1.900861423298185 5.167933158647314 -13.397967465477544 0 0 0
346 1 2.9057748380769746 5.288281111527693 -13.538468759135066 0 0 0
289 1 1.7858034231120454 4.102756329473112 -12.120640476246727 0 0 0
387 1 1.0601807361960993 3.288348233251929 -11.72524458260543 0 0 0
382 1 1.7630985508735608 5.346645055239552 -12.269478796555841 1 0 0
973 1 2.9734622330072153 4.2407583335327335 -12.084029683283395 0 0 0
1878 1 2.7414340734053724 3.474185685077125 -11.209327713690184 0 1 0
724 1 3.558009519547629 3.445405117925941 -11.793771494788446 0 1 0
75 2 4.762203155904603 4.762203155904603 -13.012360930525091 0 0 0
443 1 3.577176471203019 5.966912479999047 -11.873265584931083 0 0 0
927 1 5.993525741933569 5.815910961680105 -11.70316075614754 0 0 0
814 1 5.8340147779718174 4.8309143406227175 -11.241410431825724 1 0 0
399 1 6.906325953378525 5.053172424062768 -12.535672361884 0 0 0
301 1 6.479746398735068 4.217245104630608 -12.09110772377833 0 0 0
401 1 7.681562454802526 5.336113576655125 -13.558258626490321 0 0 0
354 1 6.613290226612545 4.243342872699368 -13.472990673248292 0 0 0
402 1 6.614538641537899 5.317654998089581 -13.50673030742411 0 0 0
357 1 7.6156360063412984 4.322107849367273 -13.344932361647794 0 0 0
406 1 7.594643452006711 4.287725193668849 -12.283521934565199 0 0 0
312 1 7.837207964029605 5.4624935574946125 -12.121543073374072 0 0 0
840 1 8.447636543126372 3.553160057692713 -11.71365729945631 0 0 0
1502 1 6.953227954525609 5.591218541695973 -11.473600857687414 0 0 0
882 1 7.441895880130617 3.676596387153036 -11.46476049015738 0 0 0
1033 1 8.628476171179232 6.205548027951268 -11.932125778895694 0 0 0
1602 1 8.12738302986611 4.653644838134558 -11.515430328767495 0 0 0
309 1 10.41821765646909 3.342728233656521 -11.819602269097267 0 0 0
77 2 9.524406311809207 4.762203155904603 -13.012360930525091 0 0 0
366 1 11.518789840427694 4.362544215696736 -12.896382344143522 0 0 0
371 1 11.376377496203219 5.290376954863349 -13.533471008096901 0 0 0
322 1 12.340709710298167 5.117180811486831 -13.277309986255002 0 0 0
324 1 10.69474070599251 6.087927434066082 -11.774019474275772 0 0 0
897 1 11.434308300608183 5.3042688474948765 -12.364438933574503 0 0 0
369 1 12.372282347019903 4.421076007347871 -12.273273843434648 0 0 0
950 1 11.387695547789264 4.376525669550034 -11.815415951031213 0 0 0
894 1 12.541681117602769 5.544386491604123 -11.931516389322104 0 0 0
316 1 11.696874848422862 4.677960358709297 -10.838530418579339 0 0 0
79 2 14.28660946771381 4.762203155904603 -13.012360930525091 0 0 0
995 1 15.707651014892393 5.839275903479377 -11.67612823152352 0 0 0
846 1 13.2777659003365 3.2961949358022427 -11.80806894400729 0 0 0
378 1 15.863548019842355 3.9793793463048983 -12.062161825707108 0 0 0
326 1 14.270113639866251 3.8703604802788547 -11.189325539844567 0 0 0
955 1 16.163351842626025 5.241667594926861 -12.460420275393766 0 0 0
333 1 16.171874298583077 5.274033407493467 -13.523502793367276 0 0 0
330 1 17.205134333584148 5.296876251168621 -13.555384672440248 0 0 0
381 1 17.015499344030957 4.367161782967523 -13.036943447222736 0 0 0
384 1 17.150649168439266 5.270377633363518 -12.41056546323743 0 0 0
197 1 17.886454437373448 3.664793672751587 -11.817157873625833 -1 0 0
290 1 17.830783362136398 5.962949175564291 -11.88452514763885 -1 0 0
1534 1 16.903826107421796 4.226097366638028 -11.919048605248525 0 0 0
462 1 16.75968698840107 5.6432279320528815 -11.562547369080836 0 0 0
282 1 17.646391421313808 4.860265656859293 -11.467935752614904 0 0 0
74 2 2.3811015779523017 7.143304733856905 -13.012360930525091 0 0 0
386 1 0.39185657373192356 6.709163215763791 -12.827472287017695 0 0 0
434 1 1.6405034616384917 8.751104312047318 -12.059140698792504 0 0 0
446 1 2.943882854691407 8.960178874719713 -13.585264465945341 0 0 0
486 1 1.963335321433037 9.25526942829639 -13.333293273834599 0 0 0
392 1 0.4176716343583685 7.564091556859624 -13.465855907698037 0 0 0
448 1 2.597239742751583 9.036103783182076 -12.381914529470915 0 0 0
1490 1 0.8743091678107415 7.86120958254886 -11.920542182507493 0 0 0
1586 1 0.785315655039139 6.660156490100928 -11.79437399301383 0 0 0
531 1 1.4390046688058333 8.532978661205927 -11.073744096359414 0 0 0
962 1 2.7204071718526825 8.40642188830605 -11.256419691782725 0 0 0
1058 1 3.657612231205959 8.488186133426483 -11.606402576352831 0 0 0
390 1 4.335060337209036 6.706960221133665 -12.659630265290419 0 0 0
397 1 4.285029650752389 7.477896512689535 -13.43367579047292 0 0 0
394 1 5.26572146676922 7.666772624975041 -13.53564216594425 0 0 0
398 1 4.0926741836373495 7.792515901823449 -12.195857124516657 0 0 0
442 1 5.101646096565354 6.6937970682567 -13.413885295654884 0 0 0
1560 1 5.416382410265589 6.516608069517612 -12.150499717942 0 0 0
450 1 5.059292595779036 7.601566222714861 -12.462012976366557 0 0 0
1645 1 4.469003490252918 6.411530668735876 -11.657850432223587 0 0 0
497 1 5.160278136968622 7.300001543859217 -11.470731419115527 0 0 0
456 1 6.691408318449536 8.758858343873943 -11.429858462914163 0 0 0
410 1 9.168286113260354 6.944598110867679 -12.695772223307275 0 0 0
76 2 7.143304733856905 7.143304733856905 -13.012360930525091 0 0 0
499 1 7.577329239088511 9.119524247859617 -13.370042537908555 0 0 0
505 1 7.769766314425716 8.93715719871827 -12.26291508502201 0 0 0
358 1 9.028688065075329 7.674931666722823 -13.515796113987621 0 0 0
501 1 6.722770000636318 9.238880671251518 -12.778034058926332 0 0 0
458 1 9.075446181263905 7.779928587058234 -12.108267552837846 0 0 0
2228 1 8.20506949548716 8.225487190104474 -11.677250386395094 0 0 0
453 1 10.025578787210417 6.700066129901806 -13.440677196470096 0 0 0
364 1 10.042472798700517 6.696345719936714 -12.223513436277662 0 0 0
78 2 11.905507889761509 7.143304733856905 -13.012360930525091 0 0 0
457 1 9.966570947424913 7.561087515520355 -12.829622384926092 0 0 0
467 1 12.468743630391492 8.96616081289708 -12.266789712150674 0 0 0
361 1 10.343462081778682 7.938452645425054 -11.968239085782484 0 0 0
464 1 11.095867411542818 8.68873591923018 -11.995236113593307 0 0 0
509 1 11.502672683664056 9.361900199595839 -12.636585526944028 0 0 0
461 1 12.218245148512956 9.280936870948196 -13.349540266927455 0 0 0
503 1 12.502334153515024 9.18115337239142 -10.815546796568725 0 0 0
418 1 14.694761037894155 6.740015051407913 -13.01473785716293 0 0 0
471 1 15.018500780851127 6.452489573993932 -12.07302350733846 0 0 0
370 1 14.803091720734157 7.610943599495397 -13.551315155280998 0 0 0
473 1 13.820903802849205 6.681131487058766 -13.49616878135196 0 0 0
1000 1 14.817227059032433 7.6992357170757995 -12.378407364869647 0 0 0
466 1 13.748343726271155 7.673389311746927 -13.491248828179195 0 0 0
516 1 13.818859167703483 6.68331116820359 -12.480287837978965 0 0 0
1134 1 13.728100302341337 7.7204809157836385 -12.16871797711633 0 0 0
380 1 12.947600278803572 8.366507023896085 -11.55742613250108 0 0 0
947 1 15.098870782083164 8.281142266166164 -11.610830926334273 0 0 0
520 1 16.321477708436948 9.091550818461375 -12.639500500155862 0 0 0
1011 1 18.64519753817696 6.545025744075771 -12.195433219903272 -1 0 0
440 1 18.709360548891336 7.540155321857919 -12.616262003651373 -1 0 0
80 2 16.667711045666113 7.143304733856905 -13.012360930525091 0 0 0
437 1 18.583629741690075 6.678245954908235 -13.502367041618562 -1 0 0
474 1 17.129506393699362 9.035440006416165 -13.490336283830498 0 0 0
1146 1 0.14626594104768512 7.33410795296475 -11.450181541382443 1 0 0
477 1 17.326432891939774 8.938623680627565 -12.027015053666812 0 0 0
421 1 16.256310765062093 8.33787081774713 -11.342772888559509 0 0 0
1001 1 18.14849123572486 8.055379699319358 -11.96670333014593 0 0 0
1641 1 2.349501869864997 10.115044321800225 -11.483340530528606 0 0 0
485 1 2.728411194973426 9.957969475059045 -13.311128324865718 0 0 0
487 1 2.9955719087143176 10.058548050547456 -12.255294653369711 0 0 0
535 1 1.964052383469595 9.873379015186359 -12.53236208409007 0 0 0
81 2 0 9.524406311809207 -13.012360930525091 0 0 0
82 2 2.3811015779523017 11.905507889761509 -13.012360930525091 0 0 0
529 1 0.5020607070996203 11.460863417094037 -13.447469300828716 0 0 0
581 1 0.4250864648065611 12.274838252123317 -12.642401943297367 0 0 0
1157 1 1.3143976289504562 10.562892639238614 -11.914647696851736 0 0 0
1052 1 0.6327548576596849 11.275602129747588 -12.282971973873835 1 0 0
1063 1 1.3533804144384454 9.628053637972899 -11.460818508369256 0 0 0
479 1 18.844756933525723 10.926576419522608 -11.59728349729866 0 0 0
578 1 4.273948822186957 11.23649211791087 -11.93344070718901 0 0 0
83 2 4.762203155904603 9.524406311809207 -13.012360930525091 0 0 0
541 1 4.227367211777281 12.422918338392975 -13.535277323459148 0 0 0
589 1 5.249724141819695 12.414784756897447 -13.534114348600578 0 0 0
490 1 5.298942665728406 11.391186909401247 -13.527000102829541 0 0 0
585 1 4.223855386763585 11.411089526296017 -13.524636739939707 0 0 0
590 1 5.09728438679037 11.448724112406724 -12.524913598620406 0 0 0
496 1 5.426579394729746 12.524771254886689 -12.201215389427274 0 0 0
538 1 4.321997188909412 12.295252577329084 -12.532696722907827 0 0 0
1070 1 6.177382149618218 10.80959142029425 -11.515748351731398 0 0 0
1745 1 5.184773931390341 10.926715069581112 -11.615445796861032 0 0 0
1069 1 3.2336566070294546 9.464442579107455 -11.482050008471694 0 0 0
539 1 3.3459889872152777 10.765702366980054 -11.557663258304833 0 0 0
548 1 4.828226135197626 11.9810381512214 -11.499884481191181 0 0 0
451 1 6.556318619592217 10.095736766851404 -12.169468544510979 0 0 0
500 1 6.956771652352289 9.945861770649557 -13.468274720355726 0 0 0
84 2 7.143304733856905 11.905507889761509 -13.012360930525091 0 0 0
498 1 7.535693126062204 9.938872046275906 -12.535819235680757 0 0 0
601 1 9.135274707472144 12.296992325472932 -12.801487069906393 0 0 0
550 1 7.31295109966048 10.440601771543857 -11.620032770122654 0 0 0
597 1 8.979054611949325 11.384337443803503 -12.426674405617828 0 0 0
554 1 9.30348744491019 11.468533343955453 -13.365238134153042 0 0 0
2274 1 8.416258344028233 10.744637718909583 -11.856015470643548 0 0 0
595 1 9.626369079426675 12.077769314469032 -11.496325380053591 0 0 0
1510 1 8.053602847435663 9.771131895044938 -11.577325175068143 0 0 0
510 1 11.429108390758081 10.052315393879985 -13.534787548520471 0 0 0
602 1 9.987592900603236 12.216742650100631 -13.43426222187693 0 0 0
85 2 9.524406311809207 9.524406311809207 -13.012360930525091 0 0 0
86 2 11.905507889761509 11.905507889761509 -13.012360930525091 0 0 0
561 1 12.39578070655459 10.034382131093407 -12.470273468299968 0 0 0
559 1 9.989355041158863 11.43459111759021 -12.62000920274894 0 0 0
557 1 10.071815126670476 12.416531696578879 -12.389385404835153 0 0 0
1181 1 11.12627859261758 10.221852052652084 -12.038646326651385 0 0 0
1706 1 10.757936680506656 11.024934368104597 -11.552781133654682 0 0 0
1752 1 12.017045490607154 10.389091901665184 -11.586309184970755 0 0 0
1795 1 9.731369906096756 11.005824116081987 -11.477913795837637 0 0 0
1140 1 11.573016584833402 9.503644577629123 -11.402411438645096 0 0 0
552 1 13.182500350461467 10.855012689342619 -11.781838657916786 0 0 0
87 2 14.28660946771381 9.524406311809207 -13.012360930525091 0 0 0
609 1 13.963880395831277 12.221383799573418 -12.836474837689119 0 0 0
562 1 13.996956861056823 11.331831076246923 -12.164749936621087 0 0 0
566 1 13.759847387665506 11.385654305027057 -13.500615072896872 0 0 0
565 1 14.771828817816196 12.3821316167878 -13.487085779371967 0 0 0
514 1 14.667920187734437 11.483261246798563 -12.97550019722929 0 0 0
567 1 14.884570817079712 12.519543153632698 -12.22099470886786 0 0 0
1245 1 14.432018353051053 12.19714301196976 -11.222841298783832 0 0 0
436 1 15.024172667332675 11.419116915093014 -11.77491982231989 -1 0 0
1031 1 12.918806954576947 9.908155899975682 -11.54090694549108 0 0 0
1060 1 15.700364958413676 11.976258788357974 -11.255050614856874 -1 0 0
522 1 16.202579185205114 9.722996154179523 -13.472279289278118 0 0 0
530 1 18.601791394551615 12.415023561170152 -13.44767881956361 -1 0 0
533 1 18.532782889327287 11.468004486551418 -12.381626802734194 -1 0 0
574 1 18.545078151608323 11.383825633951272 -13.539034483300217 0 0 0
88 2 16.667711045666113 11.905507889761509 -13.012360930525091 0 0 0
525 1 17.144607481273038 9.976742090283894 -12.426912969609331 0 0 0
573 1 18.55269812115641 12.498464214520114 -12.252345849723085 0 0 0
527 1 17.199833635433063 10.056218175384306 -13.550397729994081 0 0 0
576 1 17.785073304456194 10.633872633974686 -11.921284184374787 0 0 0
1098 1 15.866697803126822 10.280110884143678 -12.047248308070968 0 0 0
617 1 16.521498646932322 9.475735107621635 -11.687715556084466 0 0 0
1739 1 16.78445427963341 10.392841265412846 -11.265536642483415 -1 0 0
1105 1 1.093906000779871 13.049155498007778 -11.808429533615653 0 0 0
89 2 0 14.28660946771381 -13.012360930525091 0 0 0
629 1 2.9388209939987444 13.747628075484227 -13.522195642046778 0 0 0
633 1 2.767737313195964 13.900809529239648 -12.52075948226987 0 0 0
677 1 2.598561686123255 14.670163309006966 -13.402400210472768 0 0 0
582 1 3.014394119788777 14.878421294444054 -12.087059278294833 0 0 0
1160 1 1.9148871501547382 13.828022910628546 -13.38513564967225 0 0 0
1781 1 1.8427958643074502 13.734747729250923 -12.133287709363314 0 0 0
1789 1 1.8495014703037065 14.82255142602649 -12.48712016490467 0 0 0
203 1 1.2902603264186385 15.40965404391905 -11.878381454688277 0 -1 0
1293 1 0.3064735816792884 15.668877866615729 -11.443831296506556 1 0 0
1156 1 0.6709537015474774 12.121540410268747 -11.691405165723232 0 0 0
584 1 3.5914845811115352 13.053988640432191 -11.795966827243523 0 0 0
91 2 4.762203155904603 14.28660946771381 -13.012360930525091 0 0 0
544 1 5.986396624797427 13.632716117324431 -11.541489888025305 0 0 0
686 1 3.8945128876740176 15.900162676916844 -11.926350715511813 0 0 0
734 1 5.767018294967503 15.671587852417124 -11.933928812100563 0 0 0
743 1 4.862076140103908 15.863254265357279 -11.503035493557524 0 0 0
1744 1 3.5972176187798586 14.027634905301635 -11.348359672600965 0 0 0
1845 1 8.856115132269265 12.655439289567534 -11.90812504680238 0 0 0
785 1 6.396930348728175 14.83661430775306 -11.967561197136972 0 -1 0
638 1 6.618981555849336 14.763128270714494 -13.545459378213199 0 0 0
600 1 6.726785606610679 13.83282341568941 -12.342003802594995 0 0 0
594 1 6.615215610059889 13.726583281255438 -13.54021244141029 0 0 0
642 1 7.449678363247124 14.763841818978076 -12.528460536452984 0 0 0
645 1 7.53380647175475 13.859255982007083 -12.95813405352646 0 0 0
693 1 7.652759242035996 14.752032592031034 -13.51511542462154 0 0 0
616 1 7.907646695340894 13.62116541444109 -11.934743012419476 0 0 0
598 1 8.252503862895997 15.384258403040768 -11.844065993398747 0 0 0
542 1 7.052712304375588 13.254537118854342 -11.454730767503523 0 0 0
508 1 7.2786891455819935 14.350227577556891 -11.478487838271228 0 0 0
93 2 9.524406311809207 14.28660946771381 -13.012360930525091 0 0 0
653 1 11.370960749622975 13.766933632282507 -13.534912504449494 0 0 0
657 1 12.382321721228266 14.80021277428734 -13.480750116500435 0 0 0
658 1 12.4282242682692 13.783009307400341 -13.507052547824467 0 0 0
699 1 11.368738093812413 14.82298894202442 -13.51611296367596 0 0 0
612 1 11.315085661318903 14.976820830569281 -12.069596234608618 0 0 0
1798 1 11.573210628649955 14.186799026794084 -12.637895789705894 0 0 0
563 1 12.410498038169273 14.736559220034122 -12.406078457387842 0 0 0
2431 1 11.901856846856173 14.241060297289996 -11.555769024377444 0 0 0
555 1 11.177203262041422 13.422349509969193 -11.955827919897548 0 0 0
1143 1 12.474568030737323 13.665583256336596 -12.215826934302045 0 0 0
1012 1 13.274368474617237 13.07617652810839 -11.736347894661773 -1 0 0
95 2 14.28660946771381 14.28660946771381 -13.012360930525091 0 0 0
668 1 16.15574033740944 15.63953215543556 -10.617712015504587 0 0 0
1772 1 15.565132093135105 13.292106363681592 -11.66644012862661 0 0 0
626 1 15.462720322569025 15.067695192800088 -11.58390930507393 -1 0 0
2290 1 13.037990898570248 14.178555910409363 -11.42794366568488 0 0 0
1216 1 13.19542081350791 15.469789098780684 -11.802508117272183 0 0 0
521 1 17.680938052812085 12.66740333979369 -11.455030341283287 0 0 0
536 1 16.178053153078807 14.814203809344482 -12.583884062998683 -1 0 0
577 1 16.112723546798073 13.754183118651815 -12.384584833210038 -1 0 0
1195 1 17.08681617981849 13.953898421277428 -12.743147336706391 0 0 0
665 1 17.20469637368599 14.846332348208838 -12.297239965026277 0 0 0
666 1 16.07041662996878 14.893627470989284 -13.58350296869777 0 0 0
669 1 16.300122426943776 13.886127834034333 -13.378401252382732 0 0 0
622 1 17.156173794122736 14.644539228186504 -13.479295660985228 0 0 0
2261 1 17.53215480941425 15.535632224893165 -11.618914117577999 -1 0 0
1200 1 17.476608548133626 13.607640134005777 -11.848552069726939 0 0 0
528 1 16.55565914514569 14.344905737069183 -11.658479434118266 0 0 0
2295 1 16.538439786767466 15.386737341899346 -11.492547251960154 0 0 0
1148 1 16.617799894196597 13.048835239676608 -11.329426846646788 0 0 0
1241 1 17.72433100223119 14.5483317125227 -11.45210079646133 0 0 0
721 1 0.4653311170420604 16.128027902275385 -12.364786556128516 0 0 0
198 1 2.782273013987102 18.664131334757435 -12.666857440480396 0 -1 0
726 1 2.035678896057459 18.613288672157502 -13.359359386976585 0 0 0
90 2 2.3811015779523017 16.667711045666113 -13.012360930525091 0 0 0
1301 1 0.03006185644538239 16.677947037131748 -11.585409202388139 0 0 0
766 1 0.471409321767412 17.141759122476486 -13.421030616784071 1 0 0
1303 1 1.8671594906126736 18.50792841510189 -12.202190704900188 0 0 0
1844 1 1.1312002072629301 17.75852850717935 -11.778924978088222 0 0 0
201 1 3.1589483416305475 18.580349701524078 -11.700369538552449 0 -1 0
730 1 4.246313942024566 16.179945992274458 -13.522224370502698 0 0 0
733 1 4.846416006590292 16.2226370017546 -12.529320524982761 0 0 0
737 1 5.273884392409288 16.153317915456082 -13.49069737930358 0 0 0
249 1 4.230921043487426 17.00045123599547 -12.326264028317324 0 -1 0
739 1 4.263786332637785 17.17905961577709 -13.506309582072978 0 0 0
263 1 5.927690587164633 17.763935523440303 -11.771828490585314 0 -1 0
1314 1 5.16470478260521 17.067847475363266 -13.0869809103505 0 0 0
1268 1 3.841142690564078 17.83744139295005 -11.723041246063412 0 0 0
207 1 5.5541124999549085 16.67493521328762 -11.767382511772178 0 -1 0
209 1 4.837663442161311 17.45416852770995 -11.661100482603327 0 -1 0
823 1 3.63626056090461 16.839783832671973 -11.370088487565612 0 -1 0
1364 1 7.2193765989739545 18.68776145582003 -11.574730823838939 0 -1 0
1222 1 8.950684948923815 16.088476196525775 -12.312828154816057 0 0 0
878 1 6.518381923274162 18.39687558311285 -12.309661441471787 0 -1 0
742 1 7.550656563894194 18.597526294937552 -12.557958722562718 0 0 0
92 2 7.143304733856905 16.667711045666113 -13.012360930525091 0 0 0
211 1 6.883100031576902 18.64566186874056 -13.428947784070616 0 -1 0
694 1 9.119109224076002 16.3699385162184 -13.426988393942594 0 0 0
700 1 9.102260179795312 17.063478414709916 -12.697405027834504 0 0 0
744 1 8.063758101570423 18.13147471543042 -11.814547996405153 0 0 0
1311 1 9.090176485047149 17.754815468482064 -11.389814745755345 0 0 0
2425 1 9.308870969057635 16.65891937210895 -11.532052405584372 0 0 0
1368 1 8.13853058503864 0.2224091532034759 -11.436754425947095 0 0 0
1178 1 10.548343580913961 16.315486177684733 -11.581306432534712 0 0 0
218 1 10.022495425240217 17.207908005025292 -12.270280067735056 0 -1 0
646 1 9.962891797383985 16.22996201935703 -12.777072456870075 0 0 0
94 2 11.905507889761509 16.667711045666113 -13.012360930525091 0 0 0
698 1 9.96590070580015 17.074425406444497 -13.42485758611981 0 0 0
753 1 11.465188408738921 18.79189234867078 -13.432422442579142 0 0 0
225 1 12.260167907859758 18.624616630876016 -12.863306458549289 0 -1 0
1324 1 11.23640699823272 18.574451591294455 -12.123166636648186 0 0 0
1754 1 10.697915768495545 17.79506741709586 -11.7766963402771 0 0 0
1274 1 11.629158500244753 17.87989003067295 -11.384825461956506 0 0 0
222 1 12.664505863491321 18.184567114711268 -11.873676170156202 0 -1 0
1242 1 15.043385444984267 16.052466131446497 -11.97722185426532 0 0 0
713 1 13.864748279506406 16.205202952197897 -13.498511652959124 0 0 0
706 1 13.89268646166496 17.059250767997728 -12.880764063774404 0 0 0
757 1 14.724352725605902 16.94254366225041 -13.449869687320792 0 0 0
751 1 14.797415886185675 17.154281693848777 -12.43897806845408 0 0 0
1336 1 13.876351118431796 16.11551924306659 -12.252703552868548 0 0 0
1328 1 13.487694484175197 17.42782915094609 -11.994855532890009 0 0 0
710 1 15.40637163607775 17.696389041916426 -11.73368047286439 0 0 0
670 1 14.351299766282308 16.635883124711594 -11.5136330821123 0 0 0
1390 1 15.700576442230773 18.740331499460023 -11.331909160841887 0 -1 0
802 1 14.413380205921586 17.655037656216603 -11.461303422614977 0 -1 0
1285 1 16.05204982119213 18.50829672414112 -12.241342425658482 0 0 0
673 1 18.541543872141823 15.941391253167435 -12.03425079049937 -1 0 0
718 1 18.52809706994484 17.201903987396367 -13.469425920768948 0 0 0
674 1 18.896469305259526 16.297289331256763 -13.230658476560121 -1 0 0
237 1 16.231977673962135 18.56338462639913 -13.466022709855832 0 -1 0