LAMMPS data file via write_data, version 2 Aug 2023, timestep = 100000, units = lj

9120 atoms
2 atom types

0 19.048812623618378 xlo xhi
0 19.048812623618378 ylo yhi
-57.14643787085514 57.14643787085514 zlo zhi

Masses

1 1
2 1

Atoms # atomic

1 2 0 0 -15.311750702163563 0 0 0
2 2 1.1905507889761486 1.1905507889761486 -15.311750702163563 0 0 0
5 2 2.3811015779522973 0 -15.311750702163563 0 0 0
6 2 3.571652366928446 1.1905507889761486 -15.311750702163563 0 0 0
9 2 4.7622031559045945 0 -15.311750702163563 0 0 0
10 2 5.952753944880743 1.1905507889761486 -15.311750702163563 0 0 0
13 2 7.143304733856892 0 -15.311750702163563 0 0 0
14 2 8.33385552283304 1.1905507889761486 -15.311750702163563 0 0 0
17 2 0 2.3811015779522973 -15.311750702163563 0 0 0
18 2 1.1905507889761486 3.571652366928446 -15.311750702163563 0 0 0
21 2 2.3811015779522973 2.3811015779522973 -15.311750702163563 0 0 0
22 2 3.571652366928446 3.571652366928446 -15.311750702163563 0 0 0
25 2 4.7622031559045945 2.3811015779522973 -15.311750702163563 0 0 0
26 2 5.952753944880743 3.571652366928446 -15.311750702163563 0 0 0
29 2 7.143304733856892 2.3811015779522973 -15.311750702163563 0 0 0
30 2 8.33385552283304 3.571652366928446 -15.311750702163563 0 0 0
33 2 0 4.7622031559045945 -15.311750702163563 0 0 0
34 2 1.1905507889761486 5.952753944880743 -15.311750702163563 0 0 0
37 2 2.3811015779522973 4.7622031559045945 -15.311750702163563 0 0 0
38 2 3.571652366928446 5.952753944880743 -15.311750702163563 0 0 0
41 2 4.7622031559045945 4.7622031559045945 -15.311750702163563 0 0 0
42 2 5.952753944880743 5.952753944880743 -15.311750702163563 0 0 0
45 2 7.143304733856892 4.7622031559045945 -15.311750702163563 0 0 0
46 2 8.33385552283304 5.952753944880743 -15.311750702163563 0 0 0
49 2 0 7.143304733856892 -15.311750702163563 0 0 0
50 2 1.1905507889761486 8.33385552283304 -15.311750702163563 0 0 0
53 2 2.3811015779522973 7.143304733856892 -15.311750702163563 0 0 0
54 2 3.571652366928446 8.33385552283304 -15.311750702163563 0 0 0
57 2 4.7622031559045945 7.143304733856892 -15.311750702163563 0 0 0
58 2 5.952753944880743 8.33385552283304 -15.311750702163563 0 0 0
61 2 7.143304733856892 7.143304733856892 -15.311750702163563 0 0 0
62 2 8.33385552283304 8.33385552283304 -15.311750702163563 0 0 0
65 2 0 9.524406311809189 -15.311750702163563 0 0 0
69 2 2.3811015779522973 9.524406311809189 -15.311750702163563 0 0 0
73 2 4.7622031559045945 9.524406311809189 -15.311750702163563 0 0 0
77 2 7.143304733856892 9.524406311809189 -15.311750702163563 0 0 0
66 2 1.1905507889761486 10.714957100785337 -15.311750702163563 0 0 0
81 2 0 11.905507889761486 -15.311750702163563 0 0 0
70 2 3.571652366928446 10.714957100785337 -15.311750702163563 0 0 0
85 2 2.3811015779522973 11.905507889761486 -15.311750702163563 0 0 0
74 2 5.952753944880743 10.714957100785337 -15.311750702163563 0 0 0
89 2 4.7622031559045945 11.905507889761486 -15.311750702163563 0 0 0
78 2 8.33385552283304 10.714957100785337 -15.311750702163563 0 0 0
93 2 7.143304733856892 11.905507889761486 -15.311750702163563 0 0 0
82 2 1.1905507889761486 13.096058678737634 -15.311750702163563 0 0 0
97 2 0 14.286609467713784 -15.311750702163563 0 0 0
86 2 3.571652366928446 13.096058678737634 -15.311750702163563 0 0 0
101 2 2.3811015779522973 14.286609467713784 -15.311750702163563 0 0 0
90 2 5.952753944880743 13.096058678737634 -15.311750702163563 0 0 0
105 2 4.7622031559045945 14.286609467713784 -15.311750702163563 0 0 0
94 2 8.33385552283304 13.096058678737634 -15.311750702163563 0 0 0
109 2 7.143304733856892 14.286609467713784 -15.311750702163563 0 0 0
98 2 1.1905507889761486 15.477160256689933 -15.311750702163563 0 0 0
113 2 0 16.66771104566608 -15.311750702163563 0 0 0
102 2 3.571652366928446 15.477160256689933 -15.311750702163563 0 0 0
117 2 2.3811015779522973 16.66771104566608 -15.311750702163563 0 0 0
106 2 5.952753944880743 15.477160256689933 -15.311750702163563 0 0 0
121 2 4.7622031559045945 16.66771104566608 -15.311750702163563 0 0 0
110 2 8.33385552283304 15.477160256689933 -15.311750702163563 0 0 0
125 2 7.143304733856892 16.66771104566608 -15.311750702163563 0 0 0
114 2 1.1905507889761486 17.858261834642228 -15.311750702163563 0 0 0
118 2 3.571652366928446 17.858261834642228 -15.311750702163563 0 0 0
122 2 5.952753944880743 17.858261834642228 -15.311750702163563 0 0 0
126 2 8.33385552283304 17.858261834642228 -15.311750702163563 0 0 0
3 2 1.1905507889761486 0 -14.121199913187413 0 0 0
4 2 0 1.1905507889761486 -14.121199913187413 0 0 0
129 2 0 0 -12.930649124211262 0 0 0
130 2 1.1905507889761486 1.1905507889761486 -12.930649124211262 0 0 0
770 1 0.026268428721135047 1.2038908639149772 -12.442295851996716 0 0 0
7 2 3.571652366928446 0 -14.121199913187413 0 0 0
8 2 2.3811015779522973 1.1905507889761486 -14.121199913187413 0 0 0
131 2 2.3811015779522973 0 -12.930649124211262 0 0 0
132 2 3.571652366928446 1.1905507889761486 -12.930649124211262 0 0 0
833 1 4.65755143170856 1.1589754802342342 -12.328765099148699 0 0 0
11 2 5.952753944880743 0 -14.121199913187413 0 0 0
12 2 4.7622031559045945 1.1905507889761486 -14.121199913187413 0 0 0
133 2 4.7622031559045945 0 -12.930649124211262 0 0 0
134 2 5.952753944880743 1.1905507889761486 -12.930649124211262 0 0 0
786 1 5.959082735446923 19.037536010829683 -12.418686682568536 0 -1 0
15 2 8.33385552283304 0 -14.121199913187413 0 0 0
16 2 7.143304733856892 1.1905507889761486 -14.121199913187413 0 0 0
135 2 7.143304733856892 0 -12.930649124211262 0 0 0
136 2 8.33385552283304 1.1905507889761486 -12.930649124211262 0 0 0
813 1 8.19200386862274 0.0851156230239502 -12.228985456172085 0 0 0
4969 1 9.400992095366338 1.0507983106253438 -12.229761998416528 0 0 0
19 2 1.1905507889761486 2.3811015779522973 -14.121199913187413 0 0 0
20 2 0 3.571652366928446 -14.121199913187413 0 0 0
137 2 0 2.3811015779522973 -12.930649124211262 0 0 0
138 2 1.1905507889761486 3.571652366928446 -12.930649124211262 0 0 0
1144 1 2.401667139840114 3.5462779509584785 -12.422257343766697 0 0 0
23 2 3.571652366928446 2.3811015779522973 -14.121199913187413 0 0 0
24 2 2.3811015779522973 3.571652366928446 -14.121199913187413 0 0 0
139 2 2.3811015779522973 2.3811015779522973 -12.930649124211262 0 0 0
140 2 3.571652366928446 3.571652366928446 -12.930649124211262 0 0 0
807 1 4.683039060526442 3.7142334150098115 -12.201627600248539 0 0 0
27 2 5.952753944880743 2.3811015779522973 -14.121199913187413 0 0 0
28 2 4.7622031559045945 3.571652366928446 -14.121199913187413 0 0 0
141 2 4.7622031559045945 2.3811015779522973 -12.930649124211262 0 0 0
142 2 5.952753944880743 3.571652366928446 -12.930649124211262 0 0 0
858 1 7.088121078912096 3.6002963509415196 -12.422572425685612 0 0 0
31 2 8.33385552283304 2.3811015779522973 -14.121199913187413 0 0 0
32 2 7.143304733856892 3.571652366928446 -14.121199913187413 0 0 0
143 2 7.143304733856892 2.3811015779522973 -12.930649124211262 0 0 0
144 2 8.33385552283304 3.571652366928446 -12.930649124211262 0 0 0
1095 1 8.334740858765 2.39342705527927 -12.523169836297928 0 0 0
384 2 8.33385552283304 17.858261834642228 15.276994710492009 0 0 0
35 2 1.1905507889761486 4.7622031559045945 -14.121199913187413 0 0 0
36 2 0 5.952753944880743 -14.121199913187413 0 0 0
145 2 0 4.7622031559045945 -12.930649124211262 0 0 0
146 2 1.1905507889761486 5.952753944880743 -12.930649124211262 0 0 0
795 1 1.19285112257985 4.753766374836121 -12.35097280598288 0 0 0
39 2 3.571652366928446 4.7622031559045945 -14.121199913187413 0 0 0
40 2 2.3811015779522973 5.952753944880743 -14.121199913187413 0 0 0
147 2 2.3811015779522973 4.7622031559045945 -12.930649124211262 0 0 0
148 2 3.571652366928446 5.952753944880743 -12.930649124211262 0 0 0
822 1 3.4622489357083763 4.716882502174365 -12.194101312823054 0 0 0
850 1 4.850580065947181 6.02799159800388 -12.285755800908973 0 0 0
43 2 5.952753944880743 4.7622031559045945 -14.121199913187413 0 0 0
44 2 4.7622031559045945 5.952753944880743 -14.121199913187413 0 0 0
149 2 4.7622031559045945 4.7622031559045945 -12.930649124211262 0 0 0
150 2 5.952753944880743 5.952753944880743 -12.930649124211262 0 0 0
854 1 5.968509087434233 4.72192942665759 -12.420044845838262 0 0 0
910 1 7.273867618492633 5.97958702594249 -12.263308303136936 0 0 0
47 2 8.33385552283304 4.7622031559045945 -14.121199913187413 0 0 0
48 2 7.143304733856892 5.952753944880743 -14.121199913187413 0 0 0
151 2 7.143304733856892 4.7622031559045945 -12.930649124211262 0 0 0
152 2 8.33385552283304 5.952753944880743 -12.930649124211262 0 0 0
51 2 1.1905507889761486 7.143304733856892 -14.121199913187413 0 0 0
52 2 0 8.33385552283304 -14.121199913187413 0 0 0
153 2 0 7.143304733856892 -12.930649124211262 0 0 0
154 2 1.1905507889761486 8.33385552283304 -12.930649124211262 0 0 0
1209 1 2.3863204707936925 8.343948899588872 -12.510460594182007 0 0 0
893 1 1.1703152439054438 7.137600508867735 -12.492682848379035 0 0 0
55 2 3.571652366928446 7.143304733856892 -14.121199913187413 0 0 0
56 2 2.3811015779522973 8.33385552283304 -14.121199913187413 0 0 0
155 2 2.3811015779522973 7.143304733856892 -12.930649124211262 0 0 0
156 2 3.571652366928446 8.33385552283304 -12.930649124211262 0 0 0
897 1 3.605474314352256 7.156000924488992 -12.505160533067238 0 0 0
945 1 4.491829051646173 8.28020485712701 -12.058147410420066 0 0 0
59 2 5.952753944880743 7.143304733856892 -14.121199913187413 0 0 0
60 2 4.7622031559045945 8.33385552283304 -14.121199913187413 0 0 0
157 2 4.7622031559045945 7.143304733856892 -12.930649124211262 0 0 0
158 2 5.952753944880743 8.33385552283304 -12.930649124211262 0 0 0
881 1 5.91527848321368 7.2077658295923355 -12.271935635784272 0 0 0
5380 1 7.140696893540015 8.320515942782945 -12.519243872421491 0 0 0
63 2 8.33385552283304 7.143304733856892 -14.121199913187413 0 0 0
64 2 7.143304733856892 8.33385552283304 -14.121199913187413 0 0 0
159 2 7.143304733856892 7.143304733856892 -12.930649124211262 0 0 0
160 2 8.33385552283304 8.33385552283304 -12.930649124211262 0 0 0
5618 1 8.310487105284231 7.073076395721046 -12.352254339149642 0 0 0
67 2 1.1905507889761486 9.524406311809189 -14.121199913187413 0 0 0
161 2 0 9.524406311809189 -12.930649124211262 0 0 0
1227 1 1.2666735750868516 9.460323018279517 -12.360661126916616 0 0 0
71 2 3.571652366928446 9.524406311809189 -14.121199913187413 0 0 0
163 2 2.3811015779522973 9.524406311809189 -12.930649124211262 0 0 0
1186 1 3.48489625509277 9.522732392327127 -12.206091840446748 0 0 0
75 2 5.952753944880743 9.524406311809189 -14.121199913187413 0 0 0
165 2 4.7622031559045945 9.524406311809189 -12.930649124211262 0 0 0
902 1 5.964595819923346 9.542107982673437 -12.472891593130043 0 0 0
79 2 8.33385552283304 9.524406311809189 -14.121199913187413 0 0 0
167 2 7.143304733856892 9.524406311809189 -12.930649124211262 0 0 0
5089 1 8.32951488377264 9.512751398311968 -12.45323397056864 0 0 0
68 2 0 10.714957100785337 -14.121199913187413 0 0 0
83 2 1.1905507889761486 11.905507889761486 -14.121199913187413 0 0 0
162 2 1.1905507889761486 10.714957100785337 -12.930649124211262 0 0 0
169 2 0 11.905507889761486 -12.930649124211262 0 0 0
961 1 1.1591399827451556 11.910714076342847 -12.489691053699419 0 0 0
918 1 2.3762001785592224 10.708488745795567 -12.50509436808128 0 0 0
72 2 2.3811015779522973 10.714957100785337 -14.121199913187413 0 0 0
87 2 3.571652366928446 11.905507889761486 -14.121199913187413 0 0 0
164 2 3.571652366928446 10.714957100785337 -12.930649124211262 0 0 0
171 2 2.3811015779522973 11.905507889761486 -12.930649124211262 0 0 0
1282 1 3.5216406811773555 11.970903861112658 -12.29761596343913 0 0 0
951 1 4.777004275297539 10.761860772951222 -12.433291770383386 0 0 0
76 2 4.7622031559045945 10.714957100785337 -14.121199913187413 0 0 0
91 2 5.952753944880743 11.905507889761486 -14.121199913187413 0 0 0
166 2 5.952753944880743 10.714957100785337 -12.930649124211262 0 0 0
173 2 4.7622031559045945 11.905507889761486 -12.930649124211262 0 0 0
1218 1 5.875388321414063 12.012261121807898 -12.31516143779891 0 0 0
1536 1 7.197757941910719 10.6333332172507 -12.288826151719523 0 0 0
80 2 7.143304733856892 10.714957100785337 -14.121199913187413 0 0 0
95 2 8.33385552283304 11.905507889761486 -14.121199913187413 0 0 0
168 2 8.33385552283304 10.714957100785337 -12.930649124211262 0 0 0
175 2 7.143304733856892 11.905507889761486 -12.930649124211262 0 0 0
876 1 8.364297300205159 11.920755806546314 -12.462254571419425 0 0 0
84 2 0 13.096058678737634 -14.121199913187413 0 0 0
99 2 1.1905507889761486 14.286609467713784 -14.121199913187413 0 0 0
170 2 1.1905507889761486 13.096058678737634 -12.930649124211262 0 0 0
177 2 0 14.286609467713784 -12.930649124211262 0 0 0
969 1 2.3484465471926055 13.110069973296572 -12.469895793272869 0 0 0
985 1 1.2383710159289991 14.32148614889816 -12.393352241890344 0 0 0
88 2 2.3811015779522973 13.096058678737634 -14.121199913187413 0 0 0
103 2 3.571652366928446 14.286609467713784 -14.121199913187413 0 0 0
172 2 3.571652366928446 13.096058678737634 -12.930649124211262 0 0 0
179 2 2.3811015779522973 14.286609467713784 -12.930649124211262 0 0 0
1313 1 3.5578708204967344 14.324258409583544 -12.299051806526181 0 0 0
966 1 4.822519831058949 13.18234983436483 -12.341421778230298 0 0 0
92 2 4.7622031559045945 13.096058678737634 -14.121199913187413 0 0 0
107 2 5.952753944880743 14.286609467713784 -14.121199913187413 0 0 0
174 2 5.952753944880743 13.096058678737634 -12.930649124211262 0 0 0
181 2 4.7622031559045945 14.286609467713784 -12.930649124211262 0 0 0
1029 1 5.936677632254621 14.294495619876429 -12.526591883894847 0 0 0
981 1 6.996237984643079 13.163300471633548 -12.275559401838615 0 0 0
96 2 7.143304733856892 13.096058678737634 -14.121199913187413 0 0 0
111 2 8.33385552283304 14.286609467713784 -14.121199913187413 0 0 0
176 2 8.33385552283304 13.096058678737634 -12.930649124211262 0 0 0
183 2 7.143304733856892 14.286609467713784 -12.930649124211262 0 0 0
978 1 8.355439178964758 14.265166330973498 -12.400026544877468 0 0 0
382 2 5.952753944880743 17.858261834642228 15.276994710492009 0 0 0
100 2 0 15.477160256689933 -14.121199913187413 0 0 0
115 2 1.1905507889761486 16.66771104566608 -14.121199913187413 0 0 0
178 2 1.1905507889761486 15.477160256689933 -12.930649124211262 0 0 0
185 2 0 16.66771104566608 -12.930649124211262 0 0 0
1014 1 1.211536681687968 16.666522023666875 -12.522838873390004 0 0 0
990 1 2.396480542915582 15.460000999959366 -12.40032365303478 0 0 0
104 2 2.3811015779522973 15.477160256689933 -14.121199913187413 0 0 0
119 2 3.571652366928446 16.66771104566608 -14.121199913187413 0 0 0
180 2 3.571652366928446 15.477160256689933 -12.930649124211262 0 0 0
187 2 2.3811015779522973 16.66771104566608 -12.930649124211262 0 0 0
2200 1 3.6216110600690152 16.65323228987937 -12.419006853865866 0 0 0
1021 1 4.778690914310424 15.528542393806045 -12.399831918576323 0 0 0
108 2 4.7622031559045945 15.477160256689933 -14.121199913187413 0 0 0
123 2 5.952753944880743 16.66771104566608 -14.121199913187413 0 0 0
182 2 5.952753944880743 15.477160256689933 -12.930649124211262 0 0 0
189 2 4.7622031559045945 16.66771104566608 -12.930649124211262 0 0 0
996 1 6.2378119122949425 16.82176355104102 -12.080239185034442 0 0 0
112 2 7.143304733856892 15.477160256689933 -14.121199913187413 0 0 0
127 2 8.33385552283304 16.66771104566608 -14.121199913187413 0 0 0
184 2 8.33385552283304 15.477160256689933 -12.930649124211262 0 0 0
191 2 7.143304733856892 16.66771104566608 -12.930649124211262 0 0 0
1030 1 8.33935895028034 16.67060123172812 -12.435152605060876 0 0 0
983 1 7.125173702079925 15.468472313198184 -12.513718401624836 0 0 0
1038 1 1.261464266380395 0.06095560313013948 -12.230645230674872 0 1 0
116 2 0 17.858261834642228 -14.121199913187413 0 0 0
186 2 1.1905507889761486 17.858261834642228 -12.930649124211262 0 0 0
988 1 2.3343261592902596 17.848573577017316 -12.491388704969909 0 0 0
120 2 2.3811015779522973 17.858261834642228 -14.121199913187413 0 0 0
188 2 3.571652366928446 17.858261834642228 -12.930649124211262 0 0 0
1045 1 4.578739640971493 18.070126136041647 -12.133990686264639 0 0 0
124 2 4.7622031559045945 17.858261834642228 -14.121199913187413 0 0 0
190 2 5.952753944880743 17.858261834642228 -12.930649124211262 0 0 0
791 1 7.107028637916522 17.84766746142933 -12.361389501808873 0 -1 0
128 2 7.143304733856892 17.858261834642228 -14.121199913187413 0 0 0
192 2 8.33385552283304 17.858261834642228 -12.930649124211262 0 0 0
801 1 2.5053535267036318 1.1920558089592648 -12.286735499939239 0 0 0
776 1 0.5648395370466776 1.9942209635582024 -11.67545905060188 0 0 0
797 1 1.4331509460711356 0.955070904610161 -10.236578732960213 0 0 0
1356 1 1.650854799385688 1.6188803335316104 -11.786504307794582 0 0 0
1326 1 1.9491052777755105 0.53613387600036 -11.516692566580756 0 1 0
769 1 0.6198345127228284 1.358590767107616 -10.708020917968058 0 0 0
1498 1 0.714387400909311 1.0029204368264721 -11.714355614471184 0 1 0
805 1 2.104505365194218 1.5306686507092684 -10.812767447322907 0 0 0
5799 1 0.08157674958459454 0.431408375280214 -10.670121051680223 1 1 0
825 1 3.574718773658494 2.3816160107792474 -12.508819912266585 0 0 0
1059 1 2.673508162240574 0.6095885717418886 -10.771590855837472 0 0 0
1062 1 3.13674973579142 1.5650522958792383 -11.118859852904134 0 0 0
1120 1 3.883461012817677 0.969602488583212 -11.708542050329905 0 0 0
845 1 3.7591035615517265 19.030184869035374 -11.007330444504134 0 -1 0
826 1 4.1537743885985625 2.027729032034456 -11.53835446724352 0 0 0
785 1 4.586717257552691 0.9786780264453377 -10.974176999189847 0 0 0
5832 1 2.760397451572422 1.9208956020017895 -9.968592019053117 1 0 0
1333 1 3.6677786981531706 0.8191319324217122 -10.255347663398595 0 1 0
1020 1 3.1060733092965975 0.2970449058695317 -11.719292428382575 0 1 0
1075 1 6.359640768644874 0.5631415463546896 -11.57324919561726 0 0 0
1078 1 6.514428635216348 1.55404809721973 -11.464935183965908 0 0 0
808 1 5.3734440994685855 1.7803450861281285 -11.957210409409047 0 0 0
827 1 5.625977584597629 1.2096035421393756 -11.131399830132986 0 0 0
1430 1 6.357544364706072 1.7937377846148546 -10.351218858488444 0 0 0
5570 1 7.478406635745609 1.0583101217998712 -10.802927563864436 0 0 0
1382 1 5.264422822973675 0.44152847915796495 -11.837286057588452 0 0 0
1335 1 5.3893379611321395 0.26459667237878176 -10.839629393843895 0 1 0
1340 1 7.171183128974629 1.2152067927792318 -12.434039867996011 0 1 0
4947 1 7.427826476012237 2.019042908387666 -10.308565748807164 0 0 0
1054 1 9.219311216689587 0.1626253691421802 -11.678861123286257 0 1 0
790 1 8.30476687926951 1.009072821046423 -11.621765500655629 0 0 0
864 1 7.661630977577758 1.872382833032989 -11.783149908026338 0 0 0
4949 1 8.399336364850594 1.678490793833712 -10.616357348653402 0 0 0
1391 1 8.480236475009217 0.6346108669792149 -10.325416905987748 0 0 0
4995 1 8.759565708365677 1.94772256961135 -11.701894135934152 0 0 0
5816 1 9.433293271096085 1.6930571866611566 -10.263574306233513 0 0 0
859 1 9.205041119695297 1.1467905996110257 -11.178316537657935 0 0 0
794 1 1.3120684717285067 2.524124151971966 -12.165907857633734 0 0 0
780 1 1.3393503049823199 2.1926191868602287 -10.9707827294942 0 0 0
1106 1 2.498795966225258 2.243699739197968 -11.655762988581428 0 0 0
1040 1 0.5323276876777425 2.8058451218323732 -10.779245623769128 0 1 0
803 1 0.8383680297362301 3.319033837020191 -11.582212886055563 0 0 0
802 1 1.8302541055335155 3.082529316392378 -11.486761263825715 0 0 0
1638 1 1.3049723387691545 3.6164370007991025 -10.66200635275212 0 0 0
821 1 0.33242644209991035 3.893652319232784 -10.681204862869233 0 0 0
784 1 2.2834078378081397 3.775710315094471 -10.887428359382309 0 0 0
1336 1 3.9183633669434736 1.8063885139369793 -10.5457481944851 0 1 0
4992 1 2.5567993846858728 2.79736835702833 -10.797069837976505 1 0 0
806 1 4.577877730217519 3.505071882095261 -10.155610407192883 0 0 0
1097 1 4.128766336963087 2.8121371407538636 -10.837462541598631 0 0 0
828 1 3.0478481905689194 3.0967006565914907 -11.716040666634417 0 0 0
771 1 3.380015438288696 3.5461186456307505 -10.479337074227722 0 0 0
1124 1 3.8612400447402684 3.6928207339261103 -11.507422241202374 0 0 0
1158 1 4.073396665662507 4.5217621084940465 -10.160925300057505 0 0 0
829 1 6.107558432359897 2.441226124727136 -12.243275175898702 0 0 0
815 1 5.0169134269661875 2.1037090550418704 -10.675390225476793 0 0 0
837 1 7.003944413408461 2.7020453697482725 -11.279745876557 0 0 0
1091 1 5.2016362893126775 2.920631135485268 -11.81212604682546 0 0 0
834 1 6.126622841751947 3.25001873911246 -11.582065009243538 0 0 0
1090 1 5.840776104865438 2.31446988110161 -11.232976917099549 0 0 0
1119 1 5.305417079746671 3.3427752475340538 -10.816700576031176 0 0 0
840 1 6.247230074963374 4.018550461992315 -10.506394636686037 0 0 0
1123 1 7.211610020339145 3.5693579005107043 -10.77858803412421 0 0 0
1138 1 5.54549919807266 4.0721142344212495 -11.751775604021338 0 0 0
1412 1 7.769460314392834 3.103756648573753 -11.863324308385064 0 0 0
1726 1 8.236195366501287 2.728531189779582 -10.923228553881906 0 0 0
5017 1 8.840109047460304 3.091589392749765 -11.84595133844021 0 0 0
5000 1 8.215860844632797 3.7580738369242512 -11.007460368040626 0 0 0
1126 1 9.123216241961792 3.5232810464441324 -10.629976330652461 0 0 0
862 1 8.89788907975092 4.32271433600915 -11.718748345995763 0 0 0
5258 1 9.233813286563175 2.572472733068675 -11.039513490924431 0 0 0
846 1 2.3873421035035256 5.978092117812928 -12.479254958968603 0 0 0
1085 1 1.479661510536551 4.338596411571338 -11.438001453660489 0 0 0
1164 1 0.1221599234820848 4.336111539190017 -11.65945715175982 0 0 0
868 1 1.1193061373236233 4.759595555851314 -10.543004415495053 0 0 0
1473 1 1.6478019585929513 5.930091433539428 -11.664554933131516 0 0 0
1384 1 2.1856897646543505 5.046235984738193 -11.561235382905346 0 0 0
867 1 0.9143189564576646 5.798005781821157 -10.663481382682967 0 0 0
895 1 0.7410163148235193 5.238790956990301 -11.583658896947789 0 0 0
6214 1 1.9732292384437866 5.400820499742506 -10.640768581026345 1 0 0
5087 1 0.01656121821375168 4.932924658620938 -10.827520372046504 1 0 0
853 1 4.5711052406397465 4.440447068704097 -11.412728073029479 0 0 0
1143 1 2.41514951980066 6.320556500961113 -11.114135401151595 0 0 0
1117 1 3.6145318144943746 4.606200852150184 -11.094990053078453 0 0 0
1169 1 2.7493840721146965 4.215619747577515 -11.709556584331239 0 0 0
875 1 4.131019356483944 5.403445353675103 -11.72431988925031 0 0 0
847 1 3.175341762955809 5.690384130750682 -11.761309410465152 0 0 0
832 1 3.1182907078481117 6.751313550577083 -11.705892394969323 0 0 0
1961 1 4.156493972453756 5.376387920599897 -10.717139429054082 0 0 0
1724 1 3.02209942286251 4.4914090477165 -10.239677278987296 0 0 0
1373 1 5.07152554226947 4.341115873502303 -10.52403397218967 0 0 0
849 1 4.869122198211144 5.912175679954663 -11.230148980765502 0 0 0
1456 1 5.7004930174890385 5.613211538683541 -10.67430326879666 0 0 0
830 1 6.793216372915308 4.149514588415284 -11.539386851770182 0 0 0
5620 1 6.073037335082337 4.814695916269962 -11.163655575935936 0 0 0
877 1 5.257894018462731 5.119162437227451 -11.784721335104921 0 0 0
878 1 6.895495805602565 5.2144958497273155 -11.743044500427246 0 0 0
894 1 5.90453959992069 5.915320137467127 -11.684136800630869 0 0 0
1145 1 6.926569227130948 5.989797466599402 -10.955653407839728 0 0 0
1487 1 7.612819373972389 4.742552104337407 -10.975381884594205 0 0 0
879 1 7.7771865147087365 4.202017687698598 -11.894103813015505 0 0 0
5857 1 8.61480469863781 4.864751778156297 -10.852033011225139 0 0 0
888 1 8.903475250270134 5.355930527514144 -11.84038925872724 0 0 0
1173 1 7.901694162531621 5.225752545412676 -11.986221153750186 0 0 0
1432 1 7.930998478481179 5.7540438671278835 -10.981972513235073 0 0 0
1213 1 8.790969910000639 6.3728675120349445 -11.66931930851835 0 0 0
1481 1 8.82270837896936 6.448300045606658 -10.245289900851777 0 0 0
911 1 9.15857121844086 5.700970964635804 -10.944637465218378 0 0 0
380 2 3.571652366928446 17.858261834642228 15.276994710492009 0 0 0
891 1 0.5757974051884406 6.831228375557119 -10.640714850453378 0 0 0
1642 1 1.5138615714801373 6.730730198008331 -11.050274595395047 0 0 0
1424 1 2.3270089805320806 8.196939773931181 -11.192260639261299 0 0 0
5397 1 1.2928108589861018 7.798066797566235 -11.675615261448053 1 0 0
5347 1 0.17900294027647082 7.755130092291449 -10.874259304824601 1 0 0
5083 1 1.2466251540540212 7.9205711808324 -10.599537267750028 1 0 0
5398 1 0.60995071310725 6.519833800477037 -11.748679962171352 1 0 0
824 1 2.1760747841518606 7.298701935625357 -10.466569213554354 0 0 0
1105 1 2.175984029900785 7.272630823066166 -11.671533695313256 0 0 0
889 1 0.31047195920446524 7.74800762238586 -11.871819070088419 0 0 0
1147 1 4.181160098399789 6.5417101503062565 -11.673456534695742 0 0 0
900 1 4.150271327985387 7.510777190934744 -11.25744018794875 0 0 0
1137 1 3.17110327720038 7.4627850896134165 -10.966537181135214 0 0 0
1451 1 3.0223956435325086 7.800746515624346 -11.933109288494101 0 0 0
905 1 3.6762670119040473 8.358308590441188 -10.63218440612813 0 0 0
917 1 3.906822466633513 6.6890960159966815 -10.70846241169082 0 0 0
1791 1 4.719568000154195 8.339222395865484 -10.749349759209574 0 0 0
1797 1 6.05412020850899 6.722858246634885 -10.83222939828904 0 0 0
866 1 5.134381833899556 6.850176152397069 -11.572318526156437 0 0 0
1438 1 6.575585475381027 6.709311675537008 -11.711142099114195 0 0 0
1135 1 5.5530931146275595 7.864808607510757 -11.531663770457317 0 0 0
936 1 6.795828828477099 7.7102822253507 -11.7025008251317 0 0 0
1182 1 6.259368810018863 7.793995701661227 -10.681148000628879 0 0 0
1674 1 4.980714269505471 7.10276850764376 -10.59620072121672 0 0 0
909 1 7.607805400964163 6.59836776884468 -11.47891104646874 0 0 0
1195 1 7.207761213879556 7.33397242526042 -10.765267869212776 0 0 0
1168 1 8.080580738218536 7.834798312616598 -11.647664805437932 0 0 0
1482 1 8.996922278754479 7.39409888513069 -11.579535885103502 0 0 0
908 1 8.270707391149429 7.123947699044384 -10.886336820883994 0 0 0
5600 1 8.858478953769083 8.334650004889834 -10.537251145237759 0 0 0
1479 1 7.807482776090056 8.499593151078047 -10.952962461588907 0 0 0
5692 1 9.136955737522372 7.404278402139638 -10.210533491991475 0 0 0
921 1 1.9244554475543367 8.672568526522726 -10.320983179349625 0 0 0
1129 1 1.6800709034710906 8.739939778313753 -11.801772678553261 0 0 0
913 1 0.7210985986356504 10.206285830643642 -11.819479072353133 0 0 0
1185 1 1.8231203834819718 10.164111088263834 -11.798598261490648 0 0 0
890 1 1.355884133061888 9.42071574509712 -11.045309867813168 0 0 0
820 1 0.672988302736728 8.736943264350206 -10.778022655510782 0 0 0
5107 1 0.5921929525225907 8.824660858058174 -11.774015885166 1 0 0
5423 1 0.4041632647242986 9.695271379466554 -10.94649168147484 1 0 0
1225 1 1.1713581947872522 10.487462949273306 -10.787944082277688 0 0 0
1260 1 1.698769020028323 10.46036769429812 -9.908533824488847 0 0 0
5681 1 2.5246002190568886 9.295115548034431 -11.70207075070869 1 0 0
1760 1 2.1739768151726535 10.07621944995155 -10.711533362918914 0 0 0
1788 1 2.8520603940686433 9.154856264566313 -10.764137851756061 0 0 0
1154 1 3.645685097240637 9.713109560505654 -11.012840370404874 0 0 0
947 1 3.883820633255522 10.375838229446337 -11.772255350489955 0 0 0
1192 1 2.8926848380610504 10.37638962468724 -11.539548262458965 0 0 0
904 1 3.495595540224438 8.63796830652504 -11.672648864514223 0 0 0
915 1 4.232061950910408 9.914990007968019 -10.17443293991481 0 0 0
1761 1 4.34399089211637 9.12092104435044 -11.442471836466375 0 0 0
1447 1 6.758977532960271 8.673784087543506 -10.798413994805138 0 0 0
1216 1 5.707150063353425 8.725866411167697 -10.84490017418532 0 0 0
1190 1 5.148758370535974 9.586088685962324 -10.949610740686163 0 0 0
874 1 5.464840620647293 8.829015734020672 -11.819105145492603 0 0 0
1188 1 6.1754959877051405 9.609168563828314 -10.751078476325896 0 0 0
953 1 6.521599369083472 8.756639229765742 -11.813133205711857 0 0 0
5096 1 6.624049652279602 9.842460548909726 -11.638681702149974 0 0 0
929 1 5.3565537061632025 10.108652774144536 -11.86322415483609 0 0 0
922 1 7.53296764872439 9.563285574612687 -10.824547391871091 0 0 0
1769 1 8.594957141187866 8.775656258158472 -11.713250710394233 0 0 0
1464 1 8.634234819390175 9.868820976466795 -10.774683840509894 0 0 0
1508 1 7.549833325390993 9.00696481481491 -11.801555974327332 0 0 0
856 1 8.0054387545144 10.214969719131336 -11.756013997489779 0 0 0
1221 1 9.051463618892122 10.117877343570193 -11.798732522962165 0 0 0
6032 1 9.511322196455003 10.452583783342607 -10.927862774773564 0 0 0
925 1 8.257670415733791 9.081297966137187 -10.172131247392416 0 0 0
1198 1 9.464628723745724 9.098694806544794 -10.997235254740712 0 0 0
5400 1 0.45713304387922693 12.327826294694622 -11.836585881321248 1 0 0
896 1 0.656680402402698 11.278670334153302 -11.858712954796866 0 0 0
997 1 1.676907074827358 11.249200302153715 -11.897744992493951 0 0 0
1573 1 2.0055628318208654 12.094780356867972 -11.075018636580507 0 0 0
977 1 1.6038580852019173 12.644279287355921 -11.831340360622079 0 0 0
5446 1 0.17616513359118838 11.80331010589297 -10.941320004891654 1 0 0
914 1 1.0117927828475926 12.770519082268638 -10.983913369703057 0 0 0
1494 1 1.1771264908037267 11.480209687726736 -10.657371759669477 0 0 0
5323 1 0.07796999429276667 10.737836065218728 -11.100897971091932 1 0 0
928 1 3.538263320432895 10.714203992964086 -10.807951053915726 0 0 0
1207 1 2.494232493379527 11.187057762771811 -10.8011274859738 0 0 0
920 1 2.745003940938159 11.368107919043197 -11.813333401993944 0 0 0
946 1 4.013824841184831 12.706530720769821 -11.793069087921612 0 0 0
937 1 4.204136147406485 11.363945855140514 -11.837969516508435 0 0 0
995 1 3.457734912906211 11.6705885142826 -11.135707646862835 0 0 0
948 1 4.364458242903273 11.079996168885643 -10.138768952704291 0 0 0
1214 1 4.454402876129327 11.918581942829514 -10.953164844293827 0 0 0
993 1 2.8745972115293283 12.627960353041821 -11.742261796795821 0 0 0
1264 1 2.8779348666019104 12.436293846948006 -10.621024312698765 0 0 0
1450 1 4.5912843774846674 10.733312603912054 -11.082021870410141 0 0 0