LAMMPS data file via write_data, version 2 Aug 2023, timestep = 100000, units = lj

8784 atoms
2 atom types

0 19.048812623618392 xlo xhi
0 19.048812623618392 ylo yhi
-57.14643787085518 57.14643787085518 zlo zhi

Masses

1 1
2 1

Atoms # atomic

7850 1 5.1036375889402015 2.072529985338472 -56.11906554967177 0 0 1
569 1 17.774087294229293 0.23405594802982735 56.90211543870807 0 1 -1
4258 1 2.3709500424160805 2.3769054926210957 -54.98617203761139 0 1 1
4430 1 3.285085700488756 1.6348427973001338 55.987856537163935 -1 1 0
3782 1 7.279371553484445 0.5630517284859669 -56.70400572899583 0 1 1
5738 1 8.86200768260556 2.1592719592697387 -55.966992937333266 -2 0 0
660 1 8.83351067028691 18.809039947746445 -55.436826995237716 1 1 0
1008 1 9.61555668022402 1.550934381674921 -55.70720795895604 -1 2 0
4220 1 6.4445575861537385 1.7711300621890145 -55.76733556833044 1 2 1
1607 1 10.399722725631957 2.321889000353422 -56.48008370780303 0 -2 0
4209 1 9.957794989495083 3.9015131577874014 -57.02667691973119 0 -2 1
8352 1 14.32923893740115 0.44467520011857914 57.02574129616865 1 1 0
5200 1 16.855356104226033 17.230286563302574 54.564767258394994 -1 -1 -1
739 1 0.6452604040967699 17.811247818062473 -54.34114244678372 0 -3 0
8756 1 2.5402602264170775 2.897991528954688 -56.93313487868594 2 2 1
5406 1 1.5105097206043645 3.4890287211723083 -55.34485652866844 1 0 0
2902 1 1.8664732801964325 4.115850398014422 -56.94592249902896 -1 0 1
2472 1 7.187525373991316 8.02107391156586 -54.32782398641433 -1 0 1
1132 1 5.014685675894088 4.134629258161581 -54.32759673973273 1 1 0
7908 1 8.448622802115796 3.097060312556903 -56.75057673323275 -1 1 1
601 1 10.756084757617057 4.625780338750342 56.926564027788245 -1 1 -1
4916 1 9.407809815176895 3.4766224933665835 -55.891547295662214 -1 1 0
4577 1 11.730073016568316 4.6178231866342525 -56.140276002675925 1 0 1
3388 1 14.38336646432017 2.4631061841152384 -52.29711601835112 -3 0 1
8444 1 18.478301085755824 2.5103580025831294 56.78841281377149 1 0 0
8580 1 18.860748347511304 6.460736819463007 -54.9368259016165 1 1 1
3431 1 16.60243733229659 5.206250612636908 -56.692642967625325 -1 1 1
4820 1 1.153769141936295 6.457960385795449 57.03712349870216 3 1 -1
4306 1 18.7230326838025 4.509462992992197 -55.8752990536463 -1 -1 1
8426 1 4.139106844545062 4.799269015468457 -55.48600042135813 1 1 1
3907 1 1.7440870761120602 6.6558112716050655 -56.19419434130284 2 -1 1
4865 1 18.810334570323512 2.327123452784175 55.84747691892464 0 0 -1
731 1 2.8729743078263708 6.222534818972335 -56.35980753296313 0 0 0
8768 1 3.950010110484635 6.599094331043087 -56.930771875809484 2 0 1
8518 1 6.948212900270413 6.300478398691561 -56.780598765700276 0 1 1
3827 1 7.369727792720591 5.557244937825045 -55.21697906677208 -1 0 1
4953 1 7.1814145417618 5.708018803126941 56.0163936481392 0 -1 -1
4120 1 8.3365085719087 4.963319798785412 -56.443715099196865 -4 -1 1
458 1 7.898968900425665 2.809579605963916 -55.129045083407185 -2 0 0
8709 1 9.984660615967195 6.370764028573811 -56.74529563567364 -1 0 1
8223 1 14.202431315968383 6.0516155653383645 -55.32457798873033 -1 1 1
3522 1 16.31610945727381 5.972466125488699 -54.57521301104718 0 -1 1
7864 1 14.401518732033216 7.000189219721079 54.634150805401205 1 -1 0
3390 1 18.006632552469163 9.457435904331373 55.106336393422275 -2 0 0
1717 1 18.861400499740174 8.7055070919843 -55.24336325169485 2 0 0
3971 1 3.47274369711081 8.488868558503196 -55.08910356249496 1 1 1
5665 1 2.7049827205301242 6.921023880782632 -53.28068401375011 -4 -2 0
8655 1 7.552455242375494 11.442474847657037 -54.018934293436374 -1 0 1
808 1 8.93164951950423 11.956615976283661 -53.97050412440498 1 2 0
729 1 9.102534819369797 4.85939839527496 55.913664105465486 -3 -3 -1
8390 1 12.278937904799504 6.370774134942583 -52.867085063371995 -1 0 1
1391 1 11.231214286924704 7.648623718440882 -55.740570784146236 -1 -1 0
1254 1 14.195511520948402 7.399133010189163 -56.33138670102775 0 -1 0
7943 1 16.760388170792385 9.836729651408938 -56.380270625533484 0 -1 1
4081 1 17.3767485889148 9.315337933007108 -52.97923224225636 -2 0 1
8639 1 0.9417879511900586 11.513604240974038 -57.0783170507255 2 0 1
3751 1 6.880440489361701 9.10814905758023 -56.23379594359163 0 -1 1
5027 1 9.286616811121958 8.173087189404342 -56.05196936067527 0 -2 0
7852 1 8.960657150563026 11.46679911715854 -56.32537736480651 2 1 1
1095 1 10.296324446486674 11.593817791338408 56.526260814114345 1 2 -1
575 1 12.598636012608553 13.044240449562691 -55.178019651091574 -3 -1 0
5662 1 9.903871716805584 7.396103544814267 56.853329951899006 1 0 -1
1501 1 13.348152653131534 9.818229064533488 56.85614738041143 -3 -3 -1
4773 1 12.673989343080244 6.962686642737398 -56.531934109919014 1 -1 0
7021 1 12.709827979855127 11.635727458852834 -54.43907039212942 -1 0 1
8176 1 0.4583823115674969 12.982294781669848 -56.37590621688601 3 2 1
4473 1 0.3791730128399548 14.096358220956319 56.477580716799025 -2 0 0
4344 1 3.5640053611169176 15.453149314539596 -54.42518284504414 1 0 1
8759 1 5.583939185622944 12.467201703823044 -56.608984329295815 0 2 1
4763 1 4.280703532227064 14.201992246928477 56.38685387340577 2 1 -1
1781 1 6.395307641968864 15.716403527153338 -57.130778102557734 0 0 0
4539 1 6.719323756184609 10.548316532934672 -56.440190899441 -3 -2 1
7624 1 10.052939322502702 15.10853096458092 -55.62593322186623 0 0 1
4579 1 11.528076105674128 9.250438176688705 -55.750733911593855 -1 -1 1
5083 1 15.111283305662889 12.2002878391386 -56.93767415974426 0 1 0
3986 1 16.56818595455317 13.668759262920313 -56.34836997375483 0 0 1
4710 1 9.919533837970505 14.337166728408178 55.253559612899494 0 -1 -1
3931 1 10.145064540037199 17.944427911554474 -55.415806708267546 0 -1 1
6031 1 13.649512892015927 15.95308177308092 -55.558182051994166 1 0 0
4721 1 15.422377073197852 14.784001049336368 -56.60426154141487 2 2 0
8471 1 16.7875541306865 16.92625016992629 -53.5442345689996 0 0 1
4671 1 1.7052364692705613 14.72955703384964 -56.7008303096454 1 0 0
4510 1 0.917664040078588 16.356326854331115 -51.29095688967682 1 2 1
4657 1 2.254185801346131 17.18882353556384 -55.97134317070721 0 -2 0
4223 1 3.4512047639807575 17.92690036904804 -54.858187062532124 -1 -2 1
5134 1 4.556995175674609 15.322729791848428 56.312609039543965 -1 -1 -1
5978 1 3.983569165543933 16.33033245815109 -55.95290417181809 -1 1 0
8372 1 5.062775855414944 0.496047339934417 -53.41288040562237 -1 -1 1
5213 1 7.823545814923399 15.160355383134684 -55.75855828329446 -1 -1 0
4396 1 8.519877730557893 14.808568085390606 56.86392627450018 -2 0 0
1795 1 12.719368111947018 0.9171616666227246 -56.49664829021666 0 0 0
4354 1 12.623537635465 17.22651435819594 -54.85199569103299 0 -1 1
616 1 17.411160091318347 17.47529860591389 -55.44219262487361 -3 0 0
8251 1 2.647563639892188 0.8136214187586198 -52.72170911281172 3 1 1
5191 1 7.032610646636649 2.4337036684573836 -54.04013789995494 1 -2 0
1361 1 5.636316680367956 2.5263289494332017 -54.894675419340764 1 0 0
7847 1 5.103353170187637 2.0787249470742277 -53.974867615782046 1 -1 1
8474 1 1.9401035581780282 1.295153199322695 -54.0875809868872 1 -2 1
703 1 7.9701656088741935 2.0659687376331326 -53.01175477732104 -1 1 0
4864 1 12.651077272114875 2.721905480580245 -53.922506642070395 -1 -2 0
8331 1 12.905940544597133 1.389349875751345 -55.503090289232176 1 -2 1
8687 1 10.696913964011015 0.2242558057803024 -55.14250925423736 0 -2 1
7601 1 14.460314545605144 0.9815232196518574 -52.73235808662064 2 -3 1
4640 1 14.839213157017692 1.4992346426552163 -54.570336858230725 0 -2 0
1103 1 15.180819415990266 0.5819481770036737 -51.45549478176568 0 1 0
4253 1 0.3854278739622465 2.9687239680742588 -55.872643113551526 -1 -1 1
3195 1 2.6802994071629893 2.924492858090962 -52.32763216536432 0 0 1
8441 1 3.9116237568305436 3.963330311357382 -54.26038062417047 2 -1 1
8570 1 6.393291478255482 5.271274275422822 -52.83488405150761 1 2 1
5072 1 5.22511958855453 4.39119212785737 -51.972771521125956 -1 0 0
4361 1 9.732462654968886 4.653628100814811 -54.40975185385764 1 -1 1
3767 1 9.558896721094202 2.6569507098481684 -53.5962899820165 2 -2 1
5695 1 11.358360538701245 3.695636038405587 -55.606968952887215 0 1 0
5692 1 12.469189620834037 3.8366375474039707 -53.89388443304162 -2 2 0
5031 1 12.56026759185748 5.213867635813811 -53.3342501834904 1 1 0
8513 1 16.047924288236043 4.92552945092764 -52.606063693877154 2 0 1
5271 1 14.920175621777153 3.3023944096563214 -52.005924112600866 0 0 0
8694 1 1.3396251376427106 5.7417090619919575 -55.19555920578887 0 -1 1
1038 1 2.316139926840561 8.634139721976092 -53.921668920791326 -1 -1 0
4723 1 3.318308653626504 5.502915058732085 -52.67356384378665 -1 1 0
5716 1 7.407912030062756 7.943203455279056 -55.73412762496225 0 1 0
491 1 5.503222541626945 6.7442150849780695 -52.87531208355025 -2 0 0
435 1 6.061857663032319 4.124638743513626 -53.868977297701406 1 -1 0
556 1 7.739125942648549 6.667833289332068 -55.62899350364599 -1 0 0
990 1 8.30441167762934 6.696523259976928 -51.05640591506917 -1 2 0
5351 1 10.228662917256825 6.757649650556273 -53.36752706801298 -2 1 0
1327 1 12.914987804527518 4.350859027472678 -51.9895490247304 1 -2 0
3579 1 13.137609910748365 6.324235580192381 -53.92601774432781 0 -1 1
8333 1 15.981360986717881 9.456061317778879 -53.290917152976725 0 5 1
1070 1 16.335293699351766 7.202034883690063 -50.891449433879345 -1 -1 0
4802 1 0.33457207750673673 9.272508282836911 -53.26141323401723 2 1 0
4464 1 4.691076440764215 8.377660316380238 -52.78754420148109 -1 1 1
756 1 10.722862504833506 8.650077883304398 -51.62725920186083 0 0 0
1041 1 7.576609282034982 7.11908507508968 -53.6257493452231 1 0 0
4378 1 11.052826810538816 8.247412309613011 -53.46261419236267 0 -1 1
801 1 10.430837373054112 11.053805148215238 -54.01673768270736 -1 0 0
4675 1 12.479761530124577 8.84524777026276 -55.09125513763934 2 -1 0
5144 1 15.17063844207044 4.282399236430805 -51.61559316150553 1 0 0
7666 1 15.444144743575789 6.928345355669124 -52.97127436710374 -1 1 1
4715 1 0.28597502903661365 10.325231455528085 -55.3761343824773 1 0 0
1283 1 1.59572750527663 10.437245213109595 -54.857540083204526 -1 -2 0
4595 1 4.2766728545654145 9.889296472387997 -54.51071622172614 -1 0 1
8316 1 7.413594182498486 11.424079165267308 -52.706541280308784 -1 0 1
8554 1 10.333523474973223 10.17500295150768 -56.338114820982405 1 -1 1
4399 1 13.432021016459066 7.4085282565708495 -54.89258409469996 -3 3 1
4711 1 10.559842556589023 7.934734384265174 -55.067084499164736 1 -2 0
4861 1 10.166550857521301 12.103271346488347 -55.90132581839136 -1 0 0
1001 1 13.314288838266114 8.01505261844579 -54.0470027470455 0 0 0
4451 1 12.867512384507544 11.013213220270314 -50.90252023390777 3 -1 1
4845 1 14.922338050772018 9.673963742833775 -54.60603687708527 2 0 0
513 1 15.884742592256138 10.144870283131175 -55.37058567784604 0 -1 0
1822 1 15.627863483626397 10.096391011365679 -52.09599607033717 -1 -2 0
8732 1 18.94853228503713 10.832120321710219 -53.37072073476352 -1 2 1
4559 1 5.009336212290539 9.508639896862462 -55.91990162943657 1 -1 1
5362 1 2.291885483985463 11.153638195011165 -53.119184351963675 0 -1 0
8634 1 2.200442785516174 12.327385779401938 -50.78242164760115 -1 0 1
8192 1 5.5759741241159935 14.641231985523833 -52.432059422170816 -1 -2 1
4057 1 7.872976077377145 13.050171420429855 -54.198865563710434 -1 -1 1
5069 1 7.930423611842767 12.728145131407896 -55.32447662573742 0 0 0
967 1 10.15587468004994 13.665109425578637 -54.8072886590069 -1 0 0
4432 1 11.076545134164565 13.918221864690793 -54.48372824342643 1 0 1
4587 1 13.809797690048283 11.981375522647788 -53.70400077659836 -2 -2 1
4102 1 15.001892556622673 14.661777046848663 -52.7694292396817 1 -1 1
4582 1 14.996771735187464 12.628297631808293 -55.873389054972435 1 0 1
5677 1 16.44465180277732 12.034399076332898 -51.80071195809245 0 -1 0
1051 1 0.31792459056568645 13.279277327521909 -53.63003782324141 1 -1 0
4497 1 0.42266332843141896 15.306899644778426 -56.0423813645204 0 -2 1
4297 1 2.870978958757687 15.469822555105381 -52.13864274213106 0 0 1
8423 1 5.598610321971586 15.44936447040286 -50.827175102766994 -1 0 1
5307 1 5.830021302176382 15.949481678676507 -53.69941746849735 0 0 0
3663 1 5.308174274247382 12.613049060686286 -53.796735619059724 1 -1 1
7671 1 9.035861826661181 16.635104600203146 -52.907751369762536 -2 0 1
520 1 16.55414955049586 15.739953690503132 -51.91489186164837 -1 0 0
3605 1 16.300678217648816 14.793605727948076 -53.950604698866705 -1 0 1
8182 1 18.562453017925186 16.50992733954372 -52.54932261511703 -2 1 1
4608 1 16.995922607578205 1.8538775990485128 -52.053752323304764 0 0 1
8098 1 3.3734933808054466 18.48110566523641 -51.85973339354375 2 0 1
1392 1 2.928863185805182 18.063305642186666 -53.34268441485787 1 1 0
6264 1 2.4829710975438033 16.697654255090267 -52.06245402047638 2 -1 0
1007 1 6.883006758785671 16.29926000344807 -52.495289837868604 -1 -1 0
7727 1 11.091097858576118 0.6602157277775714 -53.439683048534384 1 1 1
577 1 11.368944235727149 16.1068247378126 -51.78866902403743 -1 -1 0
4883 1 11.854819362395235 15.469794941837877 -54.192992969229145 -1 -2 0
3559 1 15.92538770745591 16.702409256425764 -52.354515414078044 -1 1 1
5261 1 13.93365260876638 16.272814376885297 -54.297883405657736 -1 1 0
8739 1 14.199835083003865 16.10175790478538 -53.24582599060643 -2 2 1
8070 1 16.28552058747012 18.98237725033375 -49.903954710971036 1 -2 1
4011 1 0.2273066718003352 18.34762801773932 -52.19422704390098 0 1 1
5385 1 1.5199171296021403 1.3298291586479003 -52.53604522454047 2 1 0
4348 1 0.3276008575344995 18.793523785923522 -53.449416413104224 1 1 1
8706 1 0.7530974420542292 0.7764589840046678 -52.141838267459825 2 3 1
629 1 5.679686752939192 2.4514853888604264 -52.51466644283316 -2 0 0
4728 1 6.158923588487126 2.0649608199530323 -50.409797204917226 0 -4 0
3743 1 7.417825860719577 18.42119277784278 -54.73417693786611 0 -1 1
5439 1 8.318752342649532 3.296652474167184 -52.20538733768624 2 0 0
4538 1 9.881609410136583 1.7405271026221751 -53.08067044732069 0 0 1
5809 1 13.935352390880915 2.35753082815645 -51.32727816305959 1 1 0
1555 1 13.256008357003232 0.8981460962932475 -50.131411271047114 0 2 0
8629 1 0.06827598220039732 1.1869709523173102 -54.23690388483546 -1 1 1
1270 1 14.914678024911494 18.458902358613095 -49.85064180639596 1 2 0
7857 1 17.827291538015256 17.793692363017218 -51.63230452534285 0 0 1
3151 1 0.9712006630808352 1.6657883075002329 -51.16694359736812 1 0 1
8217 1 2.7634839364720953 0.9644058644340625 -50.5899268682451 2 0 1
764 1 4.49392283126295 3.6083256372230452 -53.47227659948238 1 1 0
4769 1 5.897028163634681 3.3135353284751425 -49.11210350694497 0 1 0
4795 1 7.662718794097161 4.196776581046519 -50.64342357787215 0 -1 0
8227 1 9.490875761009304 2.4244209001000585 -50.86401391396826 -1 -1 1
453 1 10.54600574253772 5.379255627179261 -53.112354105392285 -3 3 0
4047 1 13.112922241808755 0.9774559503352964 -47.48917383791288 1 -1 1
5464 1 12.568125154774757 3.14322886793878 -50.910680029810536 0 -2 0
8428 1 16.133477363559127 1.647280980355713 -50.27670823750287 -1 0 1
473 1 16.82676988060647 6.147771854815775 -53.745892689138515 -1 1 0
4269 1 0.438408366170491 5.121995738166813 -50.61722604225929 -1 -1 1
1170 1 5.89688033013312 7.703058155543291 -54.12181276357979 1 -1 0
3108 1 10.358027490387997 3.882048848141127 -51.0445709403532 -1 -1 1
870 1 9.734244236692973 4.911007910341834 -51.61928789320208 0 3 0
5106 1 13.883343086109793 7.57165183620304 -50.681751736003925 1 0 0
8406 1 0.19425424349269815 4.775569568272485 -52.75987391518002 0 1 1
537 1 17.94500039540779 3.322764446216565 -52.25412985413178 1 -4 0
8113 1 4.134312885436786 8.33479393100638 -51.21422005815197 1 -1 1
5102 1 6.878844294693484 6.847320871711641 -49.326465770236794 -2 -1 0
720 1 2.6448780795430715 6.259006678711939 -51.76317132647786 0 3 0
4207 1 11.007951830569985 10.314607533935488 -52.23774016543916 -1 0 1
1260 1 10.132315262515554 6.989479926986591 -52.09041178169096 -2 2 0
8254 1 13.457144796644394 8.310467676961473 -51.330401509546675 0 -2 1
7384 1 11.520556299077178 9.361903767109634 -52.50692042028071 0 -1 1
7698 1 17.933377541680994 9.055629975869989 -51.85756745073083 0 1 1
4602 1 14.305179627960868 11.070826180741472 -50.31930726995028 2 2 1
3774 1 17.464173642596954 7.670537932266036 -53.32699793755289 -2 -1 1
8527 1 18.458005084572683 10.074202270903431 -50.480196995098 2 1 1
1540 1 18.447087440473183 6.836345847094138 -50.79868376072949 -2 0 0
5532 1 1.7460975953876676 9.45074065989904 -49.77708610476945 2 0 0
5178 1 5.205964366107381 10.979845234094737 -54.408484185825614 1 2 0
1126 1 3.20831889461847 10.799262386782129 -51.670287267061994 1 -3 0
5258 1 6.7212758118492335 14.261721282609084 -50.765690368160165 1 -1 0
8164 1 7.759281984473658 12.534408396331205 -52.74235892254649 0 0 1
4243 1 11.285419664493876 13.054488853018535 -53.00857395834166 -2 -2 1
5373 1 8.826612675629674 9.493383327819203 -53.61293162859897 -1 -1 0
5660 1 9.307404581183498 10.07773965463832 -52.55290214009793 2 0 0
3979 1 12.69174118443455 9.952883410345168 -51.011683796558664 -1 0 1
622 1 15.007178466744524 9.141336580548327 -52.05478136376438 -1 -4 0
7912 1 15.118690006967476 13.087823746794077 -50.332294222526635 0 0 1
1504 1 17.476755033959055 10.150392110866695 -52.27931692541002 -2 -3 0
5668 1 16.25935614583768 11.579256885812523 -53.53582058898713 -1 2 0
1525 1 2.694691265904915 14.800168063675454 -48.96032240477904 0 -3 0
4247 1 3.77499430223816 13.147652757344783 -51.3057269768876 -1 2 1
3906 1 8.829810283098096 14.879647750177877 -53.962885960064575 0 0 1
4284 1 6.906823234021228 13.765426903625798 -54.173619600998656 -3 1 1
525 1 17.339539111062894 13.5226781099848 -49.60284269372109 -1 0 0
5442 1 17.679738379377703 13.455714629587954 -50.97811603833588 0 -1 0
883 1 18.98593990898966 15.45953819981051 -51.843351442652285 0 -1 0
1153 1 3.8164248209766076 15.503037172277319 -48.56148016095458 1 0 0
8175 1 12.554371457072094 13.301983432439481 -51.940750868886475 -1 1 1
4500 1 15.607242044786751 16.853212136889994 -50.32112802809938 2 -1 1
566 1 12.24363070152897 17.354201609032526 -53.43862639717574 0 -1 0
861 1 16.969704437735928 14.016854238079523 -52.253387793740046 -2 1 0
1265 1 0.18368404555973786 15.417886511497088 -53.26886541695066 -1 -1 0
4017 1 18.509780187897707 14.266491129695334 -51.65696438357524 0 0 1
8724 1 18.563887221681476 18.34924997495188 -50.991811245842804 -1 2 1
8770 1 4.152345117171223 14.704380106203308 -50.40143717825063 -1 0 1
5034 1 7.817411767448253 17.97711199233546 -52.323161144263615 -2 0 0
4826 1 4.718380612022169 17.587297683667405 -52.14582132866255 1 -2 0
4994 1 5.167429339046551 16.138067906010985 -49.98660084271334 1 -2 0
7610 1 8.305300926844835 1.0508832002016533 -53.796137721716725 0 3 1
8269 1 6.397283547889472 1.125317763941669 -52.7774239642501 3 3 1
1108 1 12.57868529842638 2.368812883915207 -52.50992043566802 0 -1 0
710 1 13.233811156162382 18.755742445403378 -52.65851838622633 0 3 0
1123 1 14.47109040935248 18.469848069111492 -55.01786911018269 -1 -2 0
4734 1 15.725347843750582 18.13072058310949 -51.599893026499075 -2 -1 0
4392 1 14.172043373174457 18.64542806151715 -52.976425672870505 -2 0 1
718 1 18.58613601197436 18.906574131942858 -48.60769515226431 -3 -2 0
529 1 6.767996368501921 18.920596201200965 -49.655773172284086 2 -4 0
644 1 11.122932139496747 1.9841285265348798 -49.124972222694765 2 -1 0
1175 1 9.17142755192589 1.8169675516698092 -52.11112756952376 0 1 0
4376 1 10.062428902518882 1.215766542343377 -50.025052411030885 -1 -2 1
8375 1 11.865353393611645 0.8467572482517157 -49.85761607372104 -1 -2 1
7519 1 14.340334943185319 2.2648570750680372 -47.651425115695254 0 1 1
849 1 4.096665019840526 1.6300034886133825 -49.38207965658328 1 -1 0
711 1 7.667986749900349 2.719221868699628 -50.89245369468881 0 2 0
1293 1 13.920196555450367 3.974841521545519 -49.79375375650433 0 0 0
5294 1 14.991585661092278 3.7688102133671197 -50.332868981530126 -1 0 0
1232 1 15.749921005935317 3.489599037541068 -47.92213967483514 0 2 0
1553 1 0.3889393909795682 2.7827862252217628 -52.619354161796025 0 1 0
8718 1 17.015591213424155 2.2467034701263824 -49.256808410046425 1 0 1
3470 1 17.191803981470798 1.3416428265057478 -47.62098338869356 2 -1 1
4421 1 2.2563395559954147 6.093516958548404 -48.73843920719364 2 0 1
4531 1 18.89294337811629 4.841647727881464 -49.38837445205501 1 1 1
5708 1 1.251764714704252 6.6599864361002155 -48.16827499096883 -1 -1 0
4716 1 0.7434818134374808 4.53938883399431 -47.12726657233199 -1 2 0
7356 1 5.0486233571220005 4.720205126088694 -48.58237942607292 1 0 1
5181 1 5.692669192511019 6.293535441467824 -48.507740622071786 1 1 0
657 1 6.171359112383977 5.491943811669276 -47.76084600482454 1 1 0
8411 1 7.081608949713958 5.308316337191489 -47.22076643129725 -1 -1 1
1180 1 9.077352063815535 7.3480560264052155 -51.12323352823541 0 -1 0
8160 1 10.658100296092472 7.3613562294146515 -48.91779547503868 1 1 1
905 1 13.739167911990323 5.312459738289454 -48.63382694243275 -1 0 0
4748 1 13.545567535413777 5.829820952085067 -50.843037514714695 -1 3 0
4695 1 11.596300173148691 5.321792925961402 -50.65828221290315 0 -2 0
1496 1 15.41267735161704 6.1770177550397865 -46.893974539410706 -3 2 0
487 1 16.634961048027993 6.156693463005354 -45.97162529051933 -2 -2 0
5383 1 16.357385823411533 5.143490701761421 -51.34991968846486 1 2 0
4644 1 1.8737283970420564 7.370083992937703 -49.525326628280986 2 0 0
1016 1 16.67862791811016 6.950050808234866 -49.62976383151533 -2 0 0
3748 1 2.2597279857043775 8.511626117257041 -49.29937391574594 -1 3 1
4988 1 3.286033241764132 8.555932621382938 -50.616753171829586 3 0 0
7926 1 7.367647160275551 7.0205406561634 -50.68992865635385 2 -2 1
5088 1 5.974642178555612 8.359654612845418 -50.81751185915379 0 0 0
2122 1 8.769349594330825 7.401124065732326 -46.6776391227793 -1 0 0
5007 1 10.998803123887892 8.274090695157211 -46.99407640377174 1 -2 0
1452 1 8.882708936269976 7.2162486119162494 -47.976052399602665 -1 -1 0
4940 1 11.405415737471545 7.873437077980553 -49.49467264373698 -2 -1 0
8482 1 18.90895271892814 9.125277086357913 -51.60199291377252 0 3 1
8086 1 15.854207426592131 10.034997543904272 -49.29816356012172 -2 -2 1
5698 1 17.60537622395233 8.37952623134919 -46.64180395456426 1 0 0
559 1 1.5665450801632972 8.475859909545953 -47.449720515264495 -3 -1 0
5400 1 5.5604964678395925 8.12203839738814 -49.32582042977224 -2 -3 0
2099 1 2.8967979024484456 9.962855191943932 -47.303190259129956 -1 1 0
8620 1 3.8334340362274473 10.294303571724363 -48.58496612413966 1 1 1
683 1 6.926473975406978 9.000238905680625 -53.106036898063664 0 0 0
4779 1 6.425711269672753 11.263306449122824 -50.03829414730949 -1 1 0
5871 1 7.7328409637980515 11.143137317445019 -44.539970218385015 -3 -1 0
8209 1 3.467097768148399 11.228156905304957 -48.1214654834405 0 1 1
624 1 9.472221808326623 10.63684586258348 -47.65712724406129 0 0 0
4881 1 10.661428923853759 12.56018061502164 -47.35416054388618 -3 -1 0
672 1 7.212312540900282 7.142464931591458 -47.84251093742314 -2 2 0
769 1 12.499545268727005 10.778011099624685 -49.95869124372695 1 1 0
4558 1 10.62020561356357 9.745223165408296 -50.19254537145944 -1 0 1
5099 1 14.08088189866785 10.395785474329676 -49.30428262367065 1 1 0
2317 1 15.18689676510012 11.839865776416804 -49.99211175157569 -1 -1 0
639 1 17.8873739830786 9.860975488238413 -48.70723346350452 -2 0 0
5274 1 1.3023729603006835 7.747365495380888 -48.724068423956936 1 0 0
5171 1 16.88088443419568 11.018751972573003 -47.795776552239246 0 2 0
8753 1 0.3157039909724732 14.727278579283794 -50.12319086028994 0 -1 1
5647 1 1.7931693092128405 15.366090313328382 -49.82560884576195 3 0 0
970 1 6.971717724849307 12.693836705344463 -49.3219382140865 0 0 0
4142 1 3.4254122421385644 11.72574643163978 -51.140836272894624 1 2 1
4649 1 8.711980959261021 13.88260507702979 -48.847116053207756 -3 -1 0
8500 1 9.711550787684896 11.84006354938351 -50.1099410932145 1 -1 1
2129 1 7.89286999806245 13.002602956388046 -47.989047893387365 -1 2 0
3952 1 12.03825310738267 13.943876179575856 -46.94011693340709 2 0 1
8299 1 16.19467252308887 14.222970887246316 -47.078178420942415 -1 -1 1
4529 1 0.9233572853944562 14.426528819846242 -48.57564258405643 1 0 1
4658 1 7.856486423913465 18.5713506749648 -49.64772005532075 2 -2 0
471 1 8.113341407385938 17.49955768103053 -50.772302041145316 0 -3 0
5143 1 8.905187660178193 14.872509595055446 -47.81128119628747 -2 0 0
1620 1 8.822528594761598 17.597898949321017 -47.7813886306534 0 0 0
5355 1 9.330413740825168 15.581275679659631 -51.772840389876464 -2 2 0
959 1 10.087536575296705 14.83758965417061 -50.28641805465848 1 1 0
1538 1 14.057304686610706 13.033871583031093 -50.157413607539524 0 1 0
1295 1 14.935727776860382 14.439893885417334 -46.739043169117956 -1 0 0
684 1 0.04004899088680958 15.288630629361613 -48.909652295982575 1 -1 0
5750 1 0.00016400154376938758 16.713685891893775 -50.19973325184127 0 -1 0
5585 1 1.8560585762136483 18.152063241732524 -49.263915420263984 2 0 0
8693 1 4.47557047790155 18.426778213491037 -50.70926573466594 0 0 1
8679 1 3.3365690752122164 15.46779986762488 -50.05718724581708 2 1 1
3183 1 5.335825670706742 17.636887643867993 -49.35381488667059 -1 0 1
4315 1 10.439174119332558 18.24609361260856 -48.31936836093116 0 -3 1
572 1 11.774800797901708 15.47984173717287 -48.89585117472386 -2 0 0
1208 1 14.870238674664737 0.5261425165483503 -49.28247105922693 -1 1 0
4810 1 13.838883666198875 17.9770386474285 -51.96708606264128 1 -2 0
818 1 14.707706306429348 17.046178648607178 -47.96861230582239 -2 -1 0
3711 1 13.387575502357526 18.92920899859026 -50.681410880939474 0 0 1
641 1 17.56500245619722 18.57630670498152 -46.4422413134807 0 0 0
4250 1 1.087226196256834 0.787966769825142 -43.86595942642608 -2 -1 1
1054 1 0.7603942748814434 2.270056186898904 -47.506652662553975 -1 -2 0
3761 1 4.198270818360854 18.184140418332515 -48.927876985336 -2 -1 1
754 1 2.5067148133855066 1.887609981763979 -44.15316435011748 1 -1 0
6609 1 7.4004178044510045 0.2917380527215256 -46.13976429745759 0 1 0
5374 1 6.521135397275346 17.443669590096988 -46.97537635570814 2 -1 0
563 1 9.816160546036885 1.432237894905136 -48.84484296100861 0 1 0
3916 1 12.252767822910991 1.5726120659899234 -48.639572370582826 0 1 1
1272 1 9.04188787615624 19.04153967388037 -50.076713658713686 0 0 0
514 1 14.52570389489217 0.16415662426747912 -45.53987171319774 1 0 0
8256 1 13.075333424713541 2.267649122926594 -46.292424716576875 -2 2 1
3466 1 12.156470191323049 0.32923225867607203 -46.67677869003101 -1 1 1
1646 1 11.906903799270506 18.415639640048926 -48.536103621923296 0 -1 0
4550 1 13.680584169708974 2.2687044850745584 -45.073184543935646 0 1 1
4616 1 14.324618129909876 1.617771258422726 -46.77806023578706 -3 0 0
751 1 18.444854721957903 2.037131558432371 -46.84998528210016 -2 -2 0
1478 1 16.069135547237437 1.1446546882140571 -46.49341749476745 0 2 0
1089 1 2.16321054317569 7.008269304681796 -46.05421521141685 -1 0 0
5517 1 4.575208223168421 2.681845807076838 -48.36542035958231 1 -2 0
4629 1 4.2344340917466345 4.004553431061561 -47.00292034085445 3 -2 0
4459 1 6.248915584346159 2.9159937749843867 -45.54500721102396 -1 0 1
4854 1 7.453518098029703 3.0654185596360257 -45.837081983137 1 0 0
4338 1 11.136676342991498 5.069890045559744 -46.24795132042151 -1 1 1
1762 1 9.4665316074113 6.0013214636409264 -47.23933138817602 -1 1 0
4784 1 10.936607095079912 2.125576418703471 -47.29723511436173 0 1 0
4729 1 10.517885190744696 4.646247867248889 -48.08020308064967 1 1 0
1165 1 15.515457522378725 5.113655672541464 -50.02954560138318 0 2 0
4991 1 14.504582675550182 3.1554893008604568 -46.46090200991679 0 0 0
3830 1 3.470047235827933 5.9295284536789925 -46.56806025310965 0 0 1
8576 1 10.592034229543446 7.46765229139393 -47.759734453177174 1 -2 1
4549 1 7.327084614460142 6.2727150157495215 -47.29809205719679 -1 -1 1
8389 1 10.459913117756573 5.564027458673712 -46.960391012763026 0 -2 1
8391 1 11.753189558642386 6.261615271293645 -48.165123431026316 1 1 1
5606 1 15.728446675328229 3.5568086792783804 -49.57404347794091 2 -1 0
4789 1 18.050828590362766 4.0618546594038385 -46.18568566746016 0 -2 0
4359 1 15.72245219762596 5.949742397733267 -49.0197135590731 1 -1 1
4291 1 16.26690384396276 4.245783685198626 -44.63614110337497 -3 0 1
1842 1 4.82940657017952 8.143423020428461 -46.84839056873923 2 0 0
4696 1 3.6297889700406536 7.404216270488793 -44.07424104199683 0 -1 0
1277 1 5.590349292247311 5.932262073714042 -46.82845803969104 -1 1 0
4892 1 9.411214748770806 6.201457040565511 -49.3991193355645 1 3 0
4888 1 4.234955015156504 11.546427370617879 -46.12190453794448 -1 1 0
4666 1 5.059766514493272 10.442833549080456 -49.18055511563842 -1 0 0
1580 1 8.874810262348431 8.805878308400304 -46.45035616498615 0 -2 0
3274 1 7.021417485450565 7.08112335631882 -46.55415613802106 -1 0 1
717 1 10.056836966581564 7.687401983866308 -46.4850480307683 2 1 0
709 1 12.067685602520015 7.315226557220752 -47.75758203907447 -4 2 0
8376 1 11.964224095978533 8.40386347482652 -44.57052233683631 0 0 1
538 1 13.045421162691081 8.696032381558428 -48.6268638021047 1 -2 0
8596 1 14.680972114840447 8.490016184808526 -45.05841122362443 1 0 1
5189 1 13.975980792152507 6.733197078940933 -45.67997188810113 0 -1 0
455 1 15.236272315299464 9.047345924068326 -48.53993050986987 2 -1 0
4847 1 16.68690809162063 7.710365092842515 -47.84954973924495 0 0 0
636 1 15.297047623395919 11.39621866603305 -48.71018240287966 0 1 0
5093 1 18.040627226069514 5.738844669607384 -45.754510746844964 -1 0 0
4513 1 0.07059117296750728 9.238822551253444 -46.90707522139843 2 -1 1
8343 1 2.468035771530509 11.236049636917524 -46.190124132211466 1 0 1
4775 1 17.92391420113965 10.528473716726856 -47.770250007367814 0 -1 0
4585 1 5.9612080304201385 8.156450505439764 -46.749327860807334 -1 -1 1
4829 1 9.18121201058618 10.02617265692347 -46.55524251744382 0 1 0
752 1 6.043313056115807 11.534965040339584 -46.85000992074098 1 1 0
4596 1 13.641872874349952 10.300060732180006 -45.542279833137336 1 1 1
8733 1 9.59638458440959 13.29950839094204 -45.0667699266264 0 2 1