LAMMPS data file for water in confinement between two graphene sheets

5032 atoms
4 atom types
2800 bonds
1 bond types
1400 angles
1 angle types
0 impropers
1 improper types
-1.8420299999999998	30.08661 xlo xhi
-0.709	33.323 ylo yhi
-150 150 zlo zhi

Masses

1 15.9994
2 1.00794
3 12.0107
4 12.0107

Atoms

1 1 3 0.00 0.0 0.0 -50.0 0 0 0
2 1 3 0.00 -1.22802 0.709 -50.0 0 0 0
3 1 3 0.00 -1.22802 2.127 -50.0 0 0 0
4 1 3 0.00 0.0 2.836 -50.0 0 0 0
5 1 3 0.00 2.45605 0.0 -50.0 0 0 0
6 1 3 0.00 1.22802 0.709 -50.0 0 0 0
7 1 3 0.00 1.22802 2.127 -50.0 0 0 0
8 1 3 0.00 2.45605 2.836 -50.0 0 0 0
9 1 3 0.00 4.9121 0.0 -50.0 0 0 0
10 1 3 0.00 3.68407 0.709 -50.0 0 0 0
11 1 3 0.00 3.68407 2.127 -50.0 0 0 0
12 1 3 0.00 4.9121 2.836 -50.0 0 0 0
13 1 3 0.00 7.36814 0.0 -50.0 0 0 0
14 1 3 0.00 6.14012 0.709 -50.0 0 0 0
15 1 3 0.00 6.14012 2.127 -50.0 0 0 0
16 1 3 0.00 7.36814 2.836 -50.0 0 0 0
17 1 3 0.00 9.82419 0.0 -50.0 0 0 0
18 1 3 0.00 8.59617 0.709 -50.0 0 0 0
19 1 3 0.00 8.59617 2.127 -50.0 0 0 0
20 1 3 0.00 9.82419 2.836 -50.0 0 0 0
21 1 3 0.00 12.2802 0.0 -50.0 0 0 0
22 1 3 0.00 11.0522 0.709 -50.0 0 0 0
23 1 3 0.00 11.0522 2.127 -50.0 0 0 0
24 1 3 0.00 12.2802 2.836 -50.0 0 0 0
25 1 3 0.00 14.7363 0.0 -50.0 0 0 0
26 1 3 0.00 13.5083 0.709 -50.0 0 0 0
27 1 3 0.00 13.5083 2.127 -50.0 0 0 0
28 1 3 0.00 14.7363 2.836 -50.0 0 0 0
29 1 3 0.00 17.1923 0.0 -50.0 0 0 0
30 1 3 0.00 15.9643 0.709 -50.0 0 0 0
31 1 3 0.00 15.9643 2.127 -50.0 0 0 0
32 1 3 0.00 17.1923 2.836 -50.0 0 0 0
33 1 3 0.00 19.6484 0.0 -50.0 0 0 0
34 1 3 0.00 18.4204 0.709 -50.0 0 0 0
35 1 3 0.00 18.4204 2.127 -50.0 0 0 0
36 1 3 0.00 19.6484 2.836 -50.0 0 0 0
37 1 3 0.00 22.1044 0.0 -50.0 0 0 0
38 1 3 0.00 20.8764 0.709 -50.0 0 0 0
39 1 3 0.00 20.8764 2.127 -50.0 0 0 0
40 1 3 0.00 22.1044 2.836 -50.0 0 0 0
41 1 3 0.00 24.5605 0.0 -50.0 0 0 0
42 1 3 0.00 23.3325 0.709 -50.0 0 0 0
43 1 3 0.00 23.3325 2.127 -50.0 0 0 0
44 1 3 0.00 24.5605 2.836 -50.0 0 0 0
45 1 3 0.00 27.0165 0.0 -50.0 0 0 0
46 1 3 0.00 25.7885 0.709 -50.0 0 0 0
47 1 3 0.00 25.7885 2.127 -50.0 0 0 0
48 1 3 0.00 27.0165 2.836 -50.0 0 0 0
49 1 3 0.00 29.4726 0.0 -50.0 0 0 0
50 1 3 0.00 28.2446 0.709 -50.0 0 0 0
51 1 3 0.00 28.2446 2.127 -50.0 0 0 0
52 1 3 0.00 29.4726 2.836 -50.0 0 0 0
53 1 3 0.00 0.0 4.254 -50.0 0 0 0
54 1 3 0.00 -1.22802 4.963 -50.0 0 0 0
55 1 3 0.00 -1.22802 6.381 -50.0 0 0 0
56 1 3 0.00 0.0 7.09 -50.0 0 0 0
57 1 3 0.00 2.45605 4.254 -50.0 0 0 0
58 1 3 0.00 1.22802 4.963 -50.0 0 0 0
59 1 3 0.00 1.22802 6.381 -50.0 0 0 0
60 1 3 0.00 2.45605 7.09 -50.0 0 0 0
61 1 3 0.00 4.9121 4.254 -50.0 0 0 0
62 1 3 0.00 3.68407 4.963 -50.0 0 0 0
63 1 3 0.00 3.68407 6.381 -50.0 0 0 0
64 1 3 0.00 4.9121 7.09 -50.0 0 0 0
65 1 3 0.00 7.36814 4.254 -50.0 0 0 0
66 1 3 0.00 6.14012 4.963 -50.0 0 0 0
67 1 3 0.00 6.14012 6.381 -50.0 0 0 0
68 1 3 0.00 7.36814 7.09 -50.0 0 0 0
69 1 3 0.00 9.82419 4.254 -50.0 0 0 0
70 1 3 0.00 8.59617 4.963 -50.0 0 0 0
71 1 3 0.00 8.59617 6.381 -50.0 0 0 0
72 1 3 0.00 9.82419 7.09 -50.0 0 0 0
73 1 3 0.00 12.2802 4.254 -50.0 0 0 0
74 1 3 0.00 11.0522 4.963 -50.0 0 0 0
75 1 3 0.00 11.0522 6.381 -50.0 0 0 0
76 1 3 0.00 12.2802 7.09 -50.0 0 0 0
77 1 3 0.00 14.7363 4.254 -50.0 0 0 0
78 1 3 0.00 13.5083 4.963 -50.0 0 0 0
79 1 3 0.00 13.5083 6.381 -50.0 0 0 0
80 1 3 0.00 14.7363 7.09 -50.0 0 0 0
81 1 3 0.00 17.1923 4.254 -50.0 0 0 0
82 1 3 0.00 15.9643 4.963 -50.0 0 0 0
83 1 3 0.00 15.9643 6.381 -50.0 0 0 0
84 1 3 0.00 17.1923 7.09 -50.0 0 0 0
85 1 3 0.00 19.6484 4.254 -50.0 0 0 0
86 1 3 0.00 18.4204 4.963 -50.0 0 0 0
87 1 3 0.00 18.4204 6.381 -50.0 0 0 0
88 1 3 0.00 19.6484 7.09 -50.0 0 0 0
89 1 3 0.00 22.1044 4.254 -50.0 0 0 0
90 1 3 0.00 20.8764 4.963 -50.0 0 0 0
91 1 3 0.00 20.8764 6.381 -50.0 0 0 0
92 1 3 0.00 22.1044 7.09 -50.0 0 0 0
93 1 3 0.00 24.5605 4.254 -50.0 0 0 0
94 1 3 0.00 23.3325 4.963 -50.0 0 0 0
95 1 3 0.00 23.3325 6.381 -50.0 0 0 0
96 1 3 0.00 24.5605 7.09 -50.0 0 0 0
97 1 3 0.00 27.0165 4.254 -50.0 0 0 0
98 1 3 0.00 25.7885 4.963 -50.0 0 0 0
99 1 3 0.00 25.7885 6.381 -50.0 0 0 0
100 1 3 0.00 27.0165 7.09 -50.0 0 0 0
101 1 3 0.00 29.4726 4.254 -50.0 0 0 0
102 1 3 0.00 28.2446 4.963 -50.0 0 0 0
103 1 3 0.00 28.2446 6.381 -50.0 0 0 0
104 1 3 0.00 29.4726 7.09 -50.0 0 0 0
105 1 3 0.00 0.0 8.508 -50.0 0 0 0
106 1 3 0.00 -1.22802 9.217 -50.0 0 0 0
107 1 3 0.00 -1.22802 10.635 -50.0 0 0 0
108 1 3 0.00 0.0 11.344 -50.0 0 0 0
109 1 3 0.00 2.45605 8.508 -50.0 0 0 0
110 1 3 0.00 1.22802 9.217 -50.0 0 0 0
111 1 3 0.00 1.22802 10.635 -50.0 0 0 0
112 1 3 0.00 2.45605 11.344 -50.0 0 0 0
113 1 3 0.00 4.9121 8.508 -50.0 0 0 0
114 1 3 0.00 3.68407 9.217 -50.0 0 0 0
115 1 3 0.00 3.68407 10.635 -50.0 0 0 0
116 1 3 0.00 4.9121 11.344 -50.0 0 0 0
117 1 3 0.00 7.36814 8.508 -50.0 0 0 0
118 1 3 0.00 6.14012 9.217 -50.0 0 0 0
119 1 3 0.00 6.14012 10.635 -50.0 0 0 0
120 1 3 0.00 7.36814 11.344 -50.0 0 0 0
121 1 3 0.00 9.82419 8.508 -50.0 0 0 0
122 1 3 0.00 8.59617 9.217 -50.0 0 0 0
123 1 3 0.00 8.59617 10.635 -50.0 0 0 0
124 1 3 0.00 9.82419 11.344 -50.0 0 0 0
125 1 3 0.00 12.2802 8.508 -50.0 0 0 0
126 1 3 0.00 11.0522 9.217 -50.0 0 0 0
127 1 3 0.00 11.0522 10.635 -50.0 0 0 0
128 1 3 0.00 12.2802 11.344 -50.0 0 0 0
129 1 3 0.00 14.7363 8.508 -50.0 0 0 0
130 1 3 0.00 13.5083 9.217 -50.0 0 0 0
131 1 3 0.00 13.5083 10.635 -50.0 0 0 0
132 1 3 0.00 14.7363 11.344 -50.0 0 0 0
133 1 3 0.00 17.1923 8.508 -50.0 0 0 0
134 1 3 0.00 15.9643 9.217 -50.0 0 0 0
135 1 3 0.00 15.9643 10.635 -50.0 0 0 0
136 1 3 0.00 17.1923 11.344 -50.0 0 0 0
137 1 3 0.00 19.6484 8.508 -50.0 0 0 0
138 1 3 0.00 18.4204 9.217 -50.0 0 0 0
139 1 3 0.00 18.4204 10.635 -50.0 0 0 0
140 1 3 0.00 19.6484 11.344 -50.0 0 0 0
141 1 3 0.00 22.1044 8.508 -50.0 0 0 0
142 1 3 0.00 20.8764 9.217 -50.0 0 0 0
143 1 3 0.00 20.8764 10.635 -50.0 0 0 0
144 1 3 0.00 22.1044 11.344 -50.0 0 0 0
145 1 3 0.00 24.5605 8.508 -50.0 0 0 0
146 1 3 0.00 23.3325 9.217 -50.0 0 0 0
147 1 3 0.00 23.3325 10.635 -50.0 0 0 0
148 1 3 0.00 24.5605 11.344 -50.0 0 0 0
149 1 3 0.00 27.0165 8.508 -50.0 0 0 0
150 1 3 0.00 25.7885 9.217 -50.0 0 0 0
151 1 3 0.00 25.7885 10.635 -50.0 0 0 0
152 1 3 0.00 27.0165 11.344 -50.0 0 0 0
153 1 3 0.00 29.4726 8.508 -50.0 0 0 0
154 1 3 0.00 28.2446 9.217 -50.0 0 0 0
155 1 3 0.00 28.2446 10.635 -50.0 0 0 0
156 1 3 0.00 29.4726 11.344 -50.0 0 0 0
157 1 3 0.00 0.0 12.762 -50.0 0 0 0
158 1 3 0.00 -1.22802 13.471 -50.0 0 0 0
159 1 3 0.00 -1.22802 14.889 -50.0 0 0 0
160 1 3 0.00 0.0 15.598 -50.0 0 0 0
161 1 3 0.00 2.45605 12.762 -50.0 0 0 0
162 1 3 0.00 1.22802 13.471 -50.0 0 0 0
163 1 3 0.00 1.22802 14.889 -50.0 0 0 0
164 1 3 0.00 2.45605 15.598 -50.0 0 0 0
165 1 3 0.00 4.9121 12.762 -50.0 0 0 0
166 1 3 0.00 3.68407 13.471 -50.0 0 0 0
167 1 3 0.00 3.68407 14.889 -50.0 0 0 0
168 1 3 0.00 4.9121 15.598 -50.0 0 0 0
169 1 3 0.00 7.36814 12.762 -50.0 0 0 0
170 1 3 0.00 6.14012 13.471 -50.0 0 0 0
171 1 3 0.00 6.14012 14.889 -50.0 0 0 0
172 1 3 0.00 7.36814 15.598 -50.0 0 0 0
173 1 3 0.00 9.82419 12.762 -50.0 0 0 0
174 1 3 0.00 8.59617 13.471 -50.0 0 0 0
175 1 3 0.00 8.59617 14.889 -50.0 0 0 0
176 1 3 0.00 9.82419 15.598 -50.0 0 0 0
177 1 3 0.00 12.2802 12.762 -50.0 0 0 0
178 1 3 0.00 11.0522 13.471 -50.0 0 0 0
179 1 3 0.00 11.0522 14.889 -50.0 0 0 0
180 1 3 0.00 12.2802 15.598 -50.0 0 0 0
181 1 3 0.00 14.7363 12.762 -50.0 0 0 0
182 1 3 0.00 13.5083 13.471 -50.0 0 0 0
183 1 3 0.00 13.5083 14.889 -50.0 0 0 0
184 1 3 0.00 14.7363 15.598 -50.0 0 0 0
185 1 3 0.00 17.1923 12.762 -50.0 0 0 0
186 1 3 0.00 15.9643 13.471 -50.0 0 0 0
187 1 3 0.00 15.9643 14.889 -50.0 0 0 0
188 1 3 0.00 17.1923 15.598 -50.0 0 0 0
189 1 3 0.00 19.6484 12.762 -50.0 0 0 0
190 1 3 0.00 18.4204 13.471 -50.0 0 0 0
191 1 3 0.00 18.4204 14.889 -50.0 0 0 0
192 1 3 0.00 19.6484 15.598 -50.0 0 0 0
193 1 3 0.00 22.1044 12.762 -50.0 0 0 0
194 1 3 0.00 20.8764 13.471 -50.0 0 0 0
195 1 3 0.00 20.8764 14.889 -50.0 0 0 0
196 1 3 0.00 22.1044 15.598 -50.0 0 0 0
197 1 3 0.00 24.5605 12.762 -50.0 0 0 0
198 1 3 0.00 23.3325 13.471 -50.0 0 0 0
199 1 3 0.00 23.3325 14.889 -50.0 0 0 0
200 1 3 0.00 24.5605 15.598 -50.0 0 0 0
201 1 3 0.00 27.0165 12.762 -50.0 0 0 0
202 1 3 0.00 25.7885 13.471 -50.0 0 0 0
203 1 3 0.00 25.7885 14.889 -50.0 0 0 0
204 1 3 0.00 27.0165 15.598 -50.0 0 0 0
205 1 3 0.00 29.4726 12.762 -50.0 0 0 0
206 1 3 0.00 28.2446 13.471 -50.0 0 0 0
207 1 3 0.00 28.2446 14.889 -50.0 0 0 0
208 1 3 0.00 29.4726 15.598 -50.0 0 0 0
209 1 3 0.00 0.0 17.016 -50.0 0 0 0
210 1 3 0.00 -1.22802 17.725 -50.0 0 0 0
211 1 3 0.00 -1.22802 19.143 -50.0 0 0 0
212 1 3 0.00 0.0 19.852 -50.0 0 0 0
213 1 3 0.00 2.45605 17.016 -50.0 0 0 0
214 1 3 0.00 1.22802 17.725 -50.0 0 0 0
215 1 3 0.00 1.22802 19.143 -50.0 0 0 0
216 1 3 0.00 2.45605 19.852 -50.0 0 0 0
217 1 3 0.00 4.9121 17.016 -50.0 0 0 0
218 1 3 0.00 3.68407 17.725 -50.0 0 0 0
219 1 3 0.00 3.68407 19.143 -50.0 0 0 0
220 1 3 0.00 4.9121 19.852 -50.0 0 0 0
221 1 3 0.00 7.36814 17.016 -50.0 0 0 0
222 1 3 0.00 6.14012 17.725 -50.0 0 0 0
223 1 3 0.00 6.14012 19.143 -50.0 0 0 0
224 1 3 0.00 7.36814 19.852 -50.0 0 0 0
225 1 3 0.00 9.82419 17.016 -50.0 0 0 0
226 1 3 0.00 8.59617 17.725 -50.0 0 0 0
227 1 3 0.00 8.59617 19.143 -50.0 0 0 0
228 1 3 0.00 9.82419 19.852 -50.0 0 0 0
229 1 3 0.00 12.2802 17.016 -50.0 0 0 0
230 1 3 0.00 11.0522 17.725 -50.0 0 0 0
231 1 3 0.00 11.0522 19.143 -50.0 0 0 0
232 1 3 0.00 12.2802 19.852 -50.0 0 0 0
233 1 3 0.00 14.7363 17.016 -50.0 0 0 0
234 1 3 0.00 13.5083 17.725 -50.0 0 0 0
235 1 3 0.00 13.5083 19.143 -50.0 0 0 0
236 1 3 0.00 14.7363 19.852 -50.0 0 0 0
237 1 3 0.00 17.1923 17.016 -50.0 0 0 0
238 1 3 0.00 15.9643 17.725 -50.0 0 0 0
239 1 3 0.00 15.9643 19.143 -50.0 0 0 0
240 1 3 0.00 17.1923 19.852 -50.0 0 0 0
241 1 3 0.00 19.6484 17.016 -50.0 0 0 0
242 1 3 0.00 18.4204 17.725 -50.0 0 0 0
243 1 3 0.00 18.4204 19.143 -50.0 0 0 0
244 1 3 0.00 19.6484 19.852 -50.0 0 0 0
245 1 3 0.00 22.1044 17.016 -50.0 0 0 0
246 1 3 0.00 20.8764 17.725 -50.0 0 0 0
247 1 3 0.00 20.8764 19.143 -50.0 0 0 0
248 1 3 0.00 22.1044 19.852 -50.0 0 0 0
249 1 3 0.00 24.5605 17.016 -50.0 0 0 0
250 1 3 0.00 23.3325 17.725 -50.0 0 0 0
251 1 3 0.00 23.3325 19.143 -50.0 0 0 0
252 1 3 0.00 24.5605 19.852 -50.0 0 0 0
253 1 3 0.00 27.0165 17.016 -50.0 0 0 0
254 1 3 0.00 25.7885 17.725 -50.0 0 0 0
255 1 3 0.00 25.7885 19.143 -50.0 0 0 0
256 1 3 0.00 27.0165 19.852 -50.0 0 0 0
257 1 3 0.00 29.4726 17.016 -50.0 0 0 0
258 1 3 0.00 28.2446 17.725 -50.0 0 0 0
259 1 3 0.00 28.2446 19.143 -50.0 0 0 0
260 1 3 0.00 29.4726 19.852 -50.0 0 0 0
261 1 3 0.00 0.0 21.27 -50.0 0 0 0
262 1 3 0.00 -1.22802 21.979 -50.0 0 0 0
263 1 3 0.00 -1.22802 23.397 -50.0 0 0 0
264 1 3 0.00 0.0 24.106 -50.0 0 0 0
265 1 3 0.00 2.45605 21.27 -50.0 0 0 0
266 1 3 0.00 1.22802 21.979 -50.0 0 0 0
267 1 3 0.00 1.22802 23.397 -50.0 0 0 0
268 1 3 0.00 2.45605 24.106 -50.0 0 0 0
269 1 3 0.00 4.9121 21.27 -50.0 0 0 0
270 1 3 0.00 3.68407 21.979 -50.0 0 0 0
271 1 3 0.00 3.68407 23.397 -50.0 0 0 0
272 1 3 0.00 4.9121 24.106 -50.0 0 0 0
273 1 3 0.00 7.36814 21.27 -50.0 0 0 0
274 1 3 0.00 6.14012 21.979 -50.0 0 0 0
275 1 3 0.00 6.14012 23.397 -50.0 0 0 0
276 1 3 0.00 7.36814 24.106 -50.0 0 0 0
277 1 3 0.00 9.82419 21.27 -50.0 0 0 0
278 1 3 0.00 8.59617 21.979 -50.0 0 0 0
279 1 3 0.00 8.59617 23.397 -50.0 0 0 0
280 1 3 0.00 9.82419 24.106 -50.0 0 0 0
281 1 3 0.00 12.2802 21.27 -50.0 0 0 0
282 1 3 0.00 11.0522 21.979 -50.0 0 0 0
283 1 3 0.00 11.0522 23.397 -50.0 0 0 0
284 1 3 0.00 12.2802 24.106 -50.0 0 0 0
285 1 3 0.00 14.7363 21.27 -50.0 0 0 0
286 1 3 0.00 13.5083 21.979 -50.0 0 0 0
287 1 3 0.00 13.5083 23.397 -50.0 0 0 0
288 1 3 0.00 14.7363 24.106 -50.0 0 0 0
289 1 3 0.00 17.1923 21.27 -50.0 0 0 0
290 1 3 0.00 15.9643 21.979 -50.0 0 0 0
291 1 3 0.00 15.9643 23.397 -50.0 0 0 0
292 1 3 0.00 17.1923 24.106 -50.0 0 0 0
293 1 3 0.00 19.6484 21.27 -50.0 0 0 0
294 1 3 0.00 18.4204 21.979 -50.0 0 0 0
295 1 3 0.00 18.4204 23.397 -50.0 0 0 0
296 1 3 0.00 19.6484 24.106 -50.0 0 0 0
297 1 3 0.00 22.1044 21.27 -50.0 0 0 0
298 1 3 0.00 20.8764 21.979 -50.0 0 0 0
299 1 3 0.00 20.8764 23.397 -50.0 0 0 0
300 1 3 0.00 22.1044 24.106 -50.0 0 0 0
301 1 3 0.00 24.5605 21.27 -50.0 0 0 0
302 1 3 0.00 23.3325 21.979 -50.0 0 0 0
303 1 3 0.00 23.3325 23.397 -50.0 0 0 0
304 1 3 0.00 24.5605 24.106 -50.0 0 0 0
305 1 3 0.00 27.0165 21.27 -50.0 0 0 0
306 1 3 0.00 25.7885 21.979 -50.0 0 0 0
307 1 3 0.00 25.7885 23.397 -50.0 0 0 0
308 1 3 0.00 27.0165 24.106 -50.0 0 0 0
309 1 3 0.00 29.4726 21.27 -50.0 0 0 0
310 1 3 0.00 28.2446 21.979 -50.0 0 0 0
311 1 3 0.00 28.2446 23.397 -50.0 0 0 0
312 1 3 0.00 29.4726 24.106 -50.0 0 0 0
313 1 3 0.00 0.0 25.524 -50.0 0 0 0
314 1 3 0.00 -1.22802 26.233 -50.0 0 0 0
315 1 3 0.00 -1.22802 27.651 -50.0 0 0 0
316 1 3 0.00 0.0 28.36 -50.0 0 0 0
317 1 3 0.00 2.45605 25.524 -50.0 0 0 0
318 1 3 0.00 1.22802 26.233 -50.0 0 0 0
319 1 3 0.00 1.22802 27.651 -50.0 0 0 0
320 1 3 0.00 2.45605 28.36 -50.0 0 0 0
321 1 3 0.00 4.9121 25.524 -50.0 0 0 0
322 1 3 0.00 3.68407 26.233 -50.0 0 0 0
323 1 3 0.00 3.68407 27.651 -50.0 0 0 0
324 1 3 0.00 4.9121 28.36 -50.0 0 0 0
325 1 3 0.00 7.36814 25.524 -50.0 0 0 0
326 1 3 0.00 6.14012 26.233 -50.0 0 0 0
327 1 3 0.00 6.14012 27.651 -50.0 0 0 0
328 1 3 0.00 7.36814 28.36 -50.0 0 0 0
329 1 3 0.00 9.82419 25.524 -50.0 0 0 0
330 1 3 0.00 8.59617 26.233 -50.0 0 0 0
331 1 3 0.00 8.59617 27.651 -50.0 0 0 0
332 1 3 0.00 9.82419 28.36 -50.0 0 0 0
333 1 3 0.00 12.2802 25.524 -50.0 0 0 0
334 1 3 0.00 11.0522 26.233 -50.0 0 0 0
335 1 3 0.00 11.0522 27.651 -50.0 0 0 0
336 1 3 0.00 12.2802 28.36 -50.0 0 0 0
337 1 3 0.00 14.7363 25.524 -50.0 0 0 0
338 1 3 0.00 13.5083 26.233 -50.0 0 0 0
339 1 3 0.00 13.5083 27.651 -50.0 0 0 0
340 1 3 0.00 14.7363 28.36 -50.0 0 0 0
341 1 3 0.00 17.1923 25.524 -50.0 0 0 0
342 1 3 0.00 15.9643 26.233 -50.0 0 0 0
343 1 3 0.00 15.9643 27.651 -50.0 0 0 0
344 1 3 0.00 17.1923 28.36 -50.0 0 0 0
345 1 3 0.00 19.6484 25.524 -50.0 0 0 0
346 1 3 0.00 18.4204 26.233 -50.0 0 0 0
347 1 3 0.00 18.4204 27.651 -50.0 0 0 0
348 1 3 0.00 19.6484 28.36 -50.0 0 0 0
349 1 3 0.00 22.1044 25.524 -50.0 0 0 0
350 1 3 0.00 20.8764 26.233 -50.0 0 0 0
351 1 3 0.00 20.8764 27.651 -50.0 0 0 0
352 1 3 0.00 22.1044 28.36 -50.0 0 0 0
353 1 3 0.00 24.5605 25.524 -50.0 0 0 0
354 1 3 0.00 23.3325 26.233 -50.0 0 0 0
355 1 3 0.00 23.3325 27.651 -50.0 0 0 0
356 1 3 0.00 24.5605 28.36 -50.0 0 0 0
357 1 3 0.00 27.0165 25.524 -50.0 0 0 0
358 1 3 0.00 25.7885 26.233 -50.0 0 0 0
359 1 3 0.00 25.7885 27.651 -50.0 0 0 0
360 1 3 0.00 27.0165 28.36 -50.0 0 0 0
361 1 3 0.00 29.4726 25.524 -50.0 0 0 0
362 1 3 0.00 28.2446 26.233 -50.0 0 0 0
363 1 3 0.00 28.2446 27.651 -50.0 0 0 0
364 1 3 0.00 29.4726 28.36 -50.0 0 0 0
365 1 3 0.00 0.0 29.778 -50.0 0 0 0
366 1 3 0.00 -1.22802 30.487 -50.0 0 0 0
367 1 3 0.00 -1.22802 31.905 -50.0 0 0 0
368 1 3 0.00 0.0 32.614 -50.0 0 0 0
369 1 3 0.00 2.45605 29.778 -50.0 0 0 0
370 1 3 0.00 1.22802 30.487 -50.0 0 0 0
371 1 3 0.00 1.22802 31.905 -50.0 0 0 0
372 1 3 0.00 2.45605 32.614 -50.0 0 0 0
373 1 3 0.00 4.9121 29.778 -50.0 0 0 0
374 1 3 0.00 3.68407 30.487 -50.0 0 0 0
375 1 3 0.00 3.68407 31.905 -50.0 0 0 0
376 1 3 0.00 4.9121 32.614 -50.0 0 0 0
377 1 3 0.00 7.36814 29.778 -50.0 0 0 0
378 1 3 0.00 6.14012 30.487 -50.0 0 0 0
379 1 3 0.00 6.14012 31.905 -50.0 0 0 0
380 1 3 0.00 7.36814 32.614 -50.0 0 0 0
381 1 3 0.00 9.82419 29.778 -50.0 0 0 0
382 1 3 0.00 8.59617 30.487 -50.0 0 0 0
383 1 3 0.00 8.59617 31.905 -50.0 0 0 0
384 1 3 0.00 9.82419 32.614 -50.0 0 0 0
385 1 3 0.00 12.2802 29.778 -50.0 0 0 0
386 1 3 0.00 11.0522 30.487 -50.0 0 0 0
387 1 3 0.00 11.0522 31.905 -50.0 0 0 0
388 1 3 0.00 12.2802 32.614 -50.0 0 0 0
389 1 3 0.00 14.7363 29.778 -50.0 0 0 0
390 1 3 0.00 13.5083 30.487 -50.0 0 0 0
391 1 3 0.00 13.5083 31.905 -50.0 0 0 0
392 1 3 0.00 14.7363 32.614 -50.0 0 0 0
393 1 3 0.00 17.1923 29.778 -50.0 0 0 0
394 1 3 0.00 15.9643 30.487 -50.0 0 0 0
395 1 3 0.00 15.9643 31.905 -50.0 0 0 0
396 1 3 0.00 17.1923 32.614 -50.0 0 0 0
397 1 3 0.00 19.6484 29.778 -50.0 0 0 0
398 1 3 0.00 18.4204 30.487 -50.0 0 0 0
399 1 3 0.00 18.4204 31.905 -50.0 0 0 0
400 1 3 0.00 19.6484 32.614 -50.0 0 0 0
401 1 3 0.00 22.1044 29.778 -50.0 0 0 0
402 1 3 0.00 20.8764 30.487 -50.0 0 0 0
403 1 3 0.00 20.8764 31.905 -50.0 0 0 0
404 1 3 0.00 22.1044 32.614 -50.0 0 0 0
405 1 3 0.00 24.5605 29.778 -50.0 0 0 0
406 1 3 0.00 23.3325 30.487 -50.0 0 0 0
407 1 3 0.00 23.3325 31.905 -50.0 0 0 0
408 1 3 0.00 24.5605 32.614 -50.0 0 0 0
409 1 3 0.00 27.0165 29.778 -50.0 0 0 0
410 1 3 0.00 25.7885 30.487 -50.0 0 0 0
411 1 3 0.00 25.7885 31.905 -50.0 0 0 0
412 1 3 0.00 27.0165 32.614 -50.0 0 0 0
413 1 3 0.00 29.4726 29.778 -50.0 0 0 0
414 1 3 0.00 28.2446 30.487 -50.0 0 0 0
415 1 3 0.00 28.2446 31.905 -50.0 0 0 0
416 1 3 0.00 29.4726 32.614 -50.0 0 0 0
417 2 4 0.00 0.0 0.0 50.0 0 0 0
418 2 4 0.00 -1.22802 0.709 50.0 0 0 0
419 2 4 0.00 -1.22802 2.127 50.0 0 0 0
420 2 4 0.00 0.0 2.836 50.0 0 0 0
421 2 4 0.00 2.45605 0.0 50.0 0 0 0
422 2 4 0.00 1.22802 0.709 50.0 0 0 0
423 2 4 0.00 1.22802 2.127 50.0 0 0 0
424 2 4 0.00 2.45605 2.836 50.0 0 0 0
425 2 4 0.00 4.9121 0.0 50.0 0 0 0
426 2 4 0.00 3.68407 0.709 50.0 0 0 0
427 2 4 0.00 3.68407 2.127 50.0 0 0 0
428 2 4 0.00 4.9121 2.836 50.0 0 0 0
429 2 4 0.00 7.36814 0.0 50.0 0 0 0
430 2 4 0.00 6.14012 0.709 50.0 0 0 0
431 2 4 0.00 6.14012 2.127 50.0 0 0 0
432 2 4 0.00 7.36814 2.836 50.0 0 0 0
433 2 4 0.00 9.82419 0.0 50.0 0 0 0
434 2 4 0.00 8.59617 0.709 50.0 0 0 0
435 2 4 0.00 8.59617 2.127 50.0 0 0 0
436 2 4 0.00 9.82419 2.836 50.0 0 0 0
437 2 4 0.00 12.2802 0.0 50.0 0 0 0
438 2 4 0.00 11.0522 0.709 50.0 0 0 0
439 2 4 0.00 11.0522 2.127 50.0 0 0 0
440 2 4 0.00 12.2802 2.836 50.0 0 0 0
441 2 4 0.00 14.7363 0.0 50.0 0 0 0
442 2 4 0.00 13.5083 0.709 50.0 0 0 0
443 2 4 0.00 13.5083 2.127 50.0 0 0 0
444 2 4 0.00 14.7363 2.836 50.0 0 0 0
445 2 4 0.00 17.1923 0.0 50.0 0 0 0
446 2 4 0.00 15.9643 0.709 50.0 0 0 0
447 2 4 0.00 15.9643 2.127 50.0 0 0 0
448 2 4 0.00 17.1923 2.836 50.0 0 0 0
449 2 4 0.00 19.6484 0.0 50.0 0 0 0
450 2 4 0.00 18.4204 0.709 50.0 0 0 0
451 2 4 0.00 18.4204 2.127 50.0 0 0 0
452 2 4 0.00 19.6484 2.836 50.0 0 0 0
453 2 4 0.00 22.1044 0.0 50.0 0 0 0
454 2 4 0.00 20.8764 0.709 50.0 0 0 0
455 2 4 0.00 20.8764 2.127 50.0 0 0 0
456 2 4 0.00 22.1044 2.836 50.0 0 0 0
457 2 4 0.00 24.5605 0.0 50.0 0 0 0
458 2 4 0.00 23.3325 0.709 50.0 0 0 0
459 2 4 0.00 23.3325 2.127 50.0 0 0 0
460 2 4 0.00 24.5605 2.836 50.0 0 0 0
461 2 4 0.00 27.0165 0.0 50.0 0 0 0
462 2 4 0.00 25.7885 0.709 50.0 0 0 0
463 2 4 0.00 25.7885 2.127 50.0 0 0 0
464 2 4 0.00 27.0165 2.836 50.0 0 0 0
465 2 4 0.00 29.4726 0.0 50.0 0 0 0
466 2 4 0.00 28.2446 0.709 50.0 0 0 0
467 2 4 0.00 28.2446 2.127 50.0 0 0 0
468 2 4 0.00 29.4726 2.836 50.0 0 0 0
469 2 4 0.00 0.0 4.254 50.0 0 0 0
470 2 4 0.00 -1.22802 4.963 50.0 0 0 0
471 2 4 0.00 -1.22802 6.381 50.0 0 0 0
472 2 4 0.00 0.0 7.09 50.0 0 0 0
473 2 4 0.00 2.45605 4.254 50.0 0 0 0
474 2 4 0.00 1.22802 4.963 50.0 0 0 0
475 2 4 0.00 1.22802 6.381 50.0 0 0 0
476 2 4 0.00 2.45605 7.09 50.0 0 0 0
477 2 4 0.00 4.9121 4.254 50.0 0 0 0
478 2 4 0.00 3.68407 4.963 50.0 0 0 0
479 2 4 0.00 3.68407 6.381 50.0 0 0 0
480 2 4 0.00 4.9121 7.09 50.0 0 0 0
481 2 4 0.00 7.36814 4.254 50.0 0 0 0
482 2 4 0.00 6.14012 4.963 50.0 0 0 0
483 2 4 0.00 6.14012 6.381 50.0 0 0 0
484 2 4 0.00 7.36814 7.09 50.0 0 0 0
485 2 4 0.00 9.82419 4.254 50.0 0 0 0
486 2 4 0.00 8.59617 4.963 50.0 0 0 0
487 2 4 0.00 8.59617 6.381 50.0 0 0 0
488 2 4 0.00 9.82419 7.09 50.0 0 0 0
489 2 4 0.00 12.2802 4.254 50.0 0 0 0
490 2 4 0.00 11.0522 4.963 50.0 0 0 0
491 2 4 0.00 11.0522 6.381 50.0 0 0 0
492 2 4 0.00 12.2802 7.09 50.0 0 0 0
493 2 4 0.00 14.7363 4.254 50.0 0 0 0
494 2 4 0.00 13.5083 4.963 50.0 0 0 0
495 2 4 0.00 13.5083 6.381 50.0 0 0 0
496 2 4 0.00 14.7363 7.09 50.0 0 0 0
497 2 4 0.00 17.1923 4.254 50.0 0 0 0
498 2 4 0.00 15.9643 4.963 50.0 0 0 0
499 2 4 0.00 15.9643 6.381 50.0 0 0 0
500 2 4 0.00 17.1923 7.09 50.0 0 0 0
501 2 4 0.00 19.6484 4.254 50.0 0 0 0
502 2 4 0.00 18.4204 4.963 50.0 0 0 0
503 2 4 0.00 18.4204 6.381 50.0 0 0 0
504 2 4 0.00 19.6484 7.09 50.0 0 0 0
505 2 4 0.00 22.1044 4.254 50.0 0 0 0
506 2 4 0.00 20.8764 4.963 50.0 0 0 0
507 2 4 0.00 20.8764 6.381 50.0 0 0 0
508 2 4 0.00 22.1044 7.09 50.0 0 0 0
509 2 4 0.00 24.5605 4.254 50.0 0 0 0
510 2 4 0.00 23.3325 4.963 50.0 0 0 0
511 2 4 0.00 23.3325 6.381 50.0 0 0 0
512 2 4 0.00 24.5605 7.09 50.0 0 0 0
513 2 4 0.00 27.0165 4.254 50.0 0 0 0
514 2 4 0.00 25.7885 4.963 50.0 0 0 0
515 2 4 0.00 25.7885 6.381 50.0 0 0 0
516 2 4 0.00 27.0165 7.09 50.0 0 0 0
517 2 4 0.00 29.4726 4.254 50.0 0 0 0
518 2 4 0.00 28.2446 4.963 50.0 0 0 0
519 2 4 0.00 28.2446 6.381 50.0 0 0 0
520 2 4 0.00 29.4726 7.09 50.0 0 0 0
521 2 4 0.00 0.0 8.508 50.0 0 0 0
522 2 4 0.00 -1.22802 9.217 50.0 0 0 0
523 2 4 0.00 -1.22802 10.635 50.0 0 0 0
524 2 4 0.00 0.0 11.344 50.0 0 0 0
525 2 4 0.00 2.45605 8.508 50.0 0 0 0
526 2 4 0.00 1.22802 9.217 50.0 0 0 0
527 2 4 0.00 1.22802 10.635 50.0 0 0 0
528 2 4 0.00 2.45605 11.344 50.0 0 0 0
529 2 4 0.00 4.9121 8.508 50.0 0 0 0
530 2 4 0.00 3.68407 9.217 50.0 0 0 0
531 2 4 0.00 3.68407 10.635 50.0 0 0 0
532 2 4 0.00 4.9121 11.344 50.0 0 0 0
533 2 4 0.00 7.36814 8.508 50.0 0 0 0
534 2 4 0.00 6.14012 9.217 50.0 0 0 0
535 2 4 0.00 6.14012 10.635 50.0 0 0 0
536 2 4 0.00 7.36814 11.344 50.0 0 0 0
537 2 4 0.00 9.82419 8.508 50.0 0 0 0
538 2 4 0.00 8.59617 9.217 50.0 0 0 0
539 2 4 0.00 8.59617 10.635 50.0 0 0 0
540 2 4 0.00 9.82419 11.344 50.0 0 0 0
541 2 4 0.00 12.2802 8.508 50.0 0 0 0
542 2 4 0.00 11.0522 9.217 50.0 0 0 0
543 2 4 0.00 11.0522 10.635 50.0 0 0 0
544 2 4 0.00 12.2802 11.344 50.0 0 0 0
545 2 4 0.00 14.7363 8.508 50.0 0 0 0
546 2 4 0.00 13.5083 9.217 50.0 0 0 0
547 2 4 0.00 13.5083 10.635 50.0 0 0 0
548 2 4 0.00 14.7363 11.344 50.0 0 0 0
549 2 4 0.00 17.1923 8.508 50.0 0 0 0
550 2 4 0.00 15.9643 9.217 50.0 0 0 0
551 2 4 0.00 15.9643 10.635 50.0 0 0 0
552 2 4 0.00 17.1923 11.344 50.0 0 0 0
553 2 4 0.00 19.6484 8.508 50.0 0 0 0
554 2 4 0.00 18.4204 9.217 50.0 0 0 0
555 2 4 0.00 18.4204 10.635 50.0 0 0 0
556 2 4 0.00 19.6484 11.344 50.0 0 0 0
557 2 4 0.00 22.1044 8.508 50.0 0 0 0
558 2 4 0.00 20.8764 9.217 50.0 0 0 0
559 2 4 0.00 20.8764 10.635 50.0 0 0 0
560 2 4 0.00 22.1044 11.344 50.0 0 0 0
561 2 4 0.00 24.5605 8.508 50.0 0 0 0
562 2 4 0.00 23.3325 9.217 50.0 0 0 0
563 2 4 0.00 23.3325 10.635 50.0 0 0 0
564 2 4 0.00 24.5605 11.344 50.0 0 0 0
565 2 4 0.00 27.0165 8.508 50.0 0 0 0
566 2 4 0.00 25.7885 9.217 50.0 0 0 0
567 2 4 0.00 25.7885 10.635 50.0 0 0 0
568 2 4 0.00 27.0165 11.344 50.0 0 0 0
569 2 4 0.00 29.4726 8.508 50.0 0 0 0
570 2 4 0.00 28.2446 9.217 50.0 0 0 0
571 2 4 0.00 28.2446 10.635 50.0 0 0 0
572 2 4 0.00 29.4726 11.344 50.0 0 0 0
573 2 4 0.00 0.0 12.762 50.0 0 0 0
574 2 4 0.00 -1.22802 13.471 50.0 0 0 0
575 2 4 0.00 -1.22802 14.889 50.0 0 0 0
576 2 4 0.00 0.0 15.598 50.0 0 0 0
577 2 4 0.00 2.45605 12.762 50.0 0 0 0
578 2 4 0.00 1.22802 13.471 50.0 0 0 0
579 2 4 0.00 1.22802 14.889 50.0 0 0 0
580 2 4 0.00 2.45605 15.598 50.0 0 0 0
581 2 4 0.00 4.9121 12.762 50.0 0 0 0
582 2 4 0.00 3.68407 13.471 50.0 0 0 0
583 2 4 0.00 3.68407 14.889 50.0 0 0 0
584 2 4 0.00 4.9121 15.598 50.0 0 0 0
585 2 4 0.00 7.36814 12.762 50.0 0 0 0
586 2 4 0.00 6.14012 13.471 50.0 0 0 0
587 2 4 0.00 6.14012 14.889 50.0 0 0 0
588 2 4 0.00 7.36814 15.598 50.0 0 0 0
589 2 4 0.00 9.82419 12.762 50.0 0 0 0
590 2 4 0.00 8.59617 13.471 50.0 0 0 0
591 2 4 0.00 8.59617 14.889 50.0 0 0 0
592 2 4 0.00 9.82419 15.598 50.0 0 0 0
593 2 4 0.00 12.2802 12.762 50.0 0 0 0
594 2 4 0.00 11.0522 13.471 50.0 0 0 0
595 2 4 0.00 11.0522 14.889 50.0 0 0 0
596 2 4 0.00 12.2802 15.598 50.0 0 0 0
597 2 4 0.00 14.7363 12.762 50.0 0 0 0
598 2 4 0.00 13.5083 13.471 50.0 0 0 0
599 2 4 0.00 13.5083 14.889 50.0 0 0 0
600 2 4 0.00 14.7363 15.598 50.0 0 0 0
601 2 4 0.00 17.1923 12.762 50.0 0 0 0
602 2 4 0.00 15.9643 13.471 50.0 0 0 0
603 2 4 0.00 15.9643 14.889 50.0 0 0 0
604 2 4 0.00 17.1923 15.598 50.0 0 0 0
605 2 4 0.00 19.6484 12.762 50.0 0 0 0
606 2 4 0.00 18.4204 13.471 50.0 0 0 0
607 2 4 0.00 18.4204 14.889 50.0 0 0 0
608 2 4 0.00 19.6484 15.598 50.0 0 0 0
609 2 4 0.00 22.1044 12.762 50.0 0 0 0
610 2 4 0.00 20.8764 13.471 50.0 0 0 0
611 2 4 0.00 20.8764 14.889 50.0 0 0 0
612 2 4 0.00 22.1044 15.598 50.0 0 0 0
613 2 4 0.00 24.5605 12.762 50.0 0 0 0
614 2 4 0.00 23.3325 13.471 50.0 0 0 0
615 2 4 0.00 23.3325 14.889 50.0 0 0 0
616 2 4 0.00 24.5605 15.598 50.0 0 0 0
617 2 4 0.00 27.0165 12.762 50.0 0 0 0
618 2 4 0.00 25.7885 13.471 50.0 0 0 0
619 2 4 0.00 25.7885 14.889 50.0 0 0 0
620 2 4 0.00 27.0165 15.598 50.0 0 0 0
621 2 4 0.00 29.4726 12.762 50.0 0 0 0
622 2 4 0.00 28.2446 13.471 50.0 0 0 0
623 2 4 0.00 28.2446 14.889 50.0 0 0 0
624 2 4 0.00 29.4726 15.598 50.0 0 0 0
625 2 4 0.00 0.0 17.016 50.0 0 0 0
626 2 4 0.00 -1.22802 17.725 50.0 0 0 0
627 2 4 0.00 -1.22802 19.143 50.0 0 0 0
628 2 4 0.00 0.0 19.852 50.0 0 0 0
629 2 4 0.00 2.45605 17.016 50.0 0 0 0
630 2 4 0.00 1.22802 17.725 50.0 0 0 0
631 2 4 0.00 1.22802 19.143 50.0 0 0 0
632 2 4 0.00 2.45605 19.852 50.0 0 0 0
633 2 4 0.00 4.9121 17.016 50.0 0 0 0
634 2 4 0.00 3.68407 17.725 50.0 0 0 0
635 2 4 0.00 3.68407 19.143 50.0 0 0 0
636 2 4 0.00 4.9121 19.852 50.0 0 0 0
637 2 4 0.00 7.36814 17.016 50.0 0 0 0
638 2 4 0.00 6.14012 17.725 50.0 0 0 0
639 2 4 0.00 6.14012 19.143 50.0 0 0 0
640 2 4 0.00 7.36814 19.852 50.0 0 0 0
641 2 4 0.00 9.82419 17.016 50.0 0 0 0
642 2 4 0.00 8.59617 17.725 50.0 0 0 0
643 2 4 0.00 8.59617 19.143 50.0 0 0 0
644 2 4 0.00 9.82419 19.852 50.0 0 0 0
645 2 4 0.00 12.2802 17.016 50.0 0 0 0
646 2 4 0.00 11.0522 17.725 50.0 0 0 0
647 2 4 0.00 11.0522 19.143 50.0 0 0 0
648 2 4 0.00 12.2802 19.852 50.0 0 0 0
649 2 4 0.00 14.7363 17.016 50.0 0 0 0
650 2 4 0.00 13.5083 17.725 50.0 0 0 0
651 2 4 0.00 13.5083 19.143 50.0 0 0 0
652 2 4 0.00 14.7363 19.852 50.0 0 0 0
653 2 4 0.00 17.1923 17.016 50.0 0 0 0
654 2 4 0.00 15.9643 17.725 50.0 0 0 0
655 2 4 0.00 15.9643 19.143 50.0 0 0 0
656 2 4 0.00 17.1923 19.852 50.0 0 0 0
657 2 4 0.00 19.6484 17.016 50.0 0 0 0
658 2 4 0.00 18.4204 17.725 50.0 0 0 0
659 2 4 0.00 18.4204 19.143 50.0 0 0 0
660 2 4 0.00 19.6484 19.852 50.0 0 0 0
661 2 4 0.00 22.1044 17.016 50.0 0 0 0
662 2 4 0.00 20.8764 17.725 50.0 0 0 0
663 2 4 0.00 20.8764 19.143 50.0 0 0 0
664 2 4 0.00 22.1044 19.852 50.0 0 0 0
665 2 4 0.00 24.5605 17.016 50.0 0 0 0
666 2 4 0.00 23.3325 17.725 50.0 0 0 0
667 2 4 0.00 23.3325 19.143 50.0 0 0 0
668 2 4 0.00 24.5605 19.852 50.0 0 0 0
669 2 4 0.00 27.0165 17.016 50.0 0 0 0
670 2 4 0.00 25.7885 17.725 50.0 0 0 0
671 2 4 0.00 25.7885 19.143 50.0 0 0 0
672 2 4 0.00 27.0165 19.852 50.0 0 0 0
673 2 4 0.00 29.4726 17.016 50.0 0 0 0
674 2 4 0.00 28.2446 17.725 50.0 0 0 0
675 2 4 0.00 28.2446 19.143 50.0 0 0 0
676 2 4 0.00 29.4726 19.852 50.0 0 0 0
677 2 4 0.00 0.0 21.27 50.0 0 0 0
678 2 4 0.00 -1.22802 21.979 50.0 0 0 0
679 2 4 0.00 -1.22802 23.397 50.0 0 0 0
680 2 4 0.00 0.0 24.106 50.0 0 0 0
681 2 4 0.00 2.45605 21.27 50.0 0 0 0
682 2 4 0.00 1.22802 21.979 50.0 0 0 0
683 2 4 0.00 1.22802 23.397 50.0 0 0 0
684 2 4 0.00 2.45605 24.106 50.0 0 0 0
685 2 4 0.00 4.9121 21.27 50.0 0 0 0
686 2 4 0.00 3.68407 21.979 50.0 0 0 0
687 2 4 0.00 3.68407 23.397 50.0 0 0 0
688 2 4 0.00 4.9121 24.106 50.0 0 0 0
689 2 4 0.00 7.36814 21.27 50.0 0 0 0
690 2 4 0.00 6.14012 21.979 50.0 0 0 0
691 2 4 0.00 6.14012 23.397 50.0 0 0 0
692 2 4 0.00 7.36814 24.106 50.0 0 0 0
693 2 4 0.00 9.82419 21.27 50.0 0 0 0
694 2 4 0.00 8.59617 21.979 50.0 0 0 0
695 2 4 0.00 8.59617 23.397 50.0 0 0 0
696 2 4 0.00 9.82419 24.106 50.0 0 0 0
697 2 4 0.00 12.2802 21.27 50.0 0 0 0
698 2 4 0.00 11.0522 21.979 50.0 0 0 0
699 2 4 0.00 11.0522 23.397 50.0 0 0 0
700 2 4 0.00 12.2802 24.106 50.0 0 0 0
701 2 4 0.00 14.7363 21.27 50.0 0 0 0
702 2 4 0.00 13.5083 21.979 50.0 0 0 0
703 2 4 0.00 13.5083 23.397 50.0 0 0 0
704 2 4 0.00 14.7363 24.106 50.0 0 0 0
705 2 4 0.00 17.1923 21.27 50.0 0 0 0
706 2 4 0.00 15.9643 21.979 50.0 0 0 0
707 2 4 0.00 15.9643 23.397 50.0 0 0 0
708 2 4 0.00 17.1923 24.106 50.0 0 0 0
709 2 4 0.00 19.6484 21.27 50.0 0 0 0
710 2 4 0.00 18.4204 21.979 50.0 0 0 0
711 2 4 0.00 18.4204 23.397 50.0 0 0 0
712 2 4 0.00 19.6484 24.106 50.0 0 0 0
713 2 4 0.00 22.1044 21.27 50.0 0 0 0
714 2 4 0.00 20.8764 21.979 50.0 0 0 0
715 2 4 0.00 20.8764 23.397 50.0 0 0 0
716 2 4 0.00 22.1044 24.106 50.0 0 0 0
717 2 4 0.00 24.5605 21.27 50.0 0 0 0
718 2 4 0.00 23.3325 21.979 50.0 0 0 0
719 2 4 0.00 23.3325 23.397 50.0 0 0 0
720 2 4 0.00 24.5605 24.106 50.0 0 0 0
721 2 4 0.00 27.0165 21.27 50.0 0 0 0
722 2 4 0.00 25.7885 21.979 50.0 0 0 0
723 2 4 0.00 25.7885 23.397 50.0 0 0 0
724 2 4 0.00 27.0165 24.106 50.0 0 0 0
725 2 4 0.00 29.4726 21.27 50.0 0 0 0
726 2 4 0.00 28.2446 21.979 50.0 0 0 0
727 2 4 0.00 28.2446 23.397 50.0 0 0 0
728 2 4 0.00 29.4726 24.106 50.0 0 0 0
729 2 4 0.00 0.0 25.524 50.0 0 0 0
730 2 4 0.00 -1.22802 26.233 50.0 0 0 0
731 2 4 0.00 -1.22802 27.651 50.0 0 0 0
732 2 4 0.00 0.0 28.36 50.0 0 0 0
733 2 4 0.00 2.45605 25.524 50.0 0 0 0
734 2 4 0.00 1.22802 26.233 50.0 0 0 0
735 2 4 0.00 1.22802 27.651 50.0 0 0 0
736 2 4 0.00 2.45605 28.36 50.0 0 0 0
737 2 4 0.00 4.9121 25.524 50.0 0 0 0
738 2 4 0.00 3.68407 26.233 50.0 0 0 0
739 2 4 0.00 3.68407 27.651 50.0 0 0 0
740 2 4 0.00 4.9121 28.36 50.0 0 0 0
741 2 4 0.00 7.36814 25.524 50.0 0 0 0
742 2 4 0.00 6.14012 26.233 50.0 0 0 0
743 2 4 0.00 6.14012 27.651 50.0 0 0 0
744 2 4 0.00 7.36814 28.36 50.0 0 0 0
745 2 4 0.00 9.82419 25.524 50.0 0 0 0
746 2 4 0.00 8.59617 26.233 50.0 0 0 0
747 2 4 0.00 8.59617 27.651 50.0 0 0 0
748 2 4 0.00 9.82419 28.36 50.0 0 0 0
749 2 4 0.00 12.2802 25.524 50.0 0 0 0
750 2 4 0.00 11.0522 26.233 50.0 0 0 0
751 2 4 0.00 11.0522 27.651 50.0 0 0 0
752 2 4 0.00 12.2802 28.36 50.0 0 0 0
753 2 4 0.00 14.7363 25.524 50.0 0 0 0
754 2 4 0.00 13.5083 26.233 50.0 0 0 0
755 2 4 0.00 13.5083 27.651 50.0 0 0 0
756 2 4 0.00 14.7363 28.36 50.0 0 0 0
757 2 4 0.00 17.1923 25.524 50.0 0 0 0
758 2 4 0.00 15.9643 26.233 50.0 0 0 0
759 2 4 0.00 15.9643 27.651 50.0 0 0 0
760 2 4 0.00 17.1923 28.36 50.0 0 0 0
761 2 4 0.00 19.6484 25.524 50.0 0 0 0
762 2 4 0.00 18.4204 26.233 50.0 0 0 0
763 2 4 0.00 18.4204 27.651 50.0 0 0 0
764 2 4 0.00 19.6484 28.36 50.0 0 0 0
765 2 4 0.00 22.1044 25.524 50.0 0 0 0
766 2 4 0.00 20.8764 26.233 50.0 0 0 0