LAMMPS data file via write_data, version 2 Aug 2023, timestep = 6500000, units = real

4432 atoms
4 atom types
2400 bonds
1 bond types
1200 angles
1 angle types
0 impropers
1 improper types

-1.8420299999999998 30.08661 xlo xhi
-0.709 33.323 ylo yhi
-150 150 zlo zhi

Masses

1 15.9994
2 1.00794
3 12.0107
4 12.0107

Pair Coeffs # lj/cut/tip4p/long

1 0.1852 3.1589
2 0 0
3 0.0859 3.3997
4 0.0859 3.3997

Bond Coeffs # harmonic

1 5000 0.9572

Angle Coeffs # harmonic

1 500 104.52

Atoms # full

1 1 3 0 0 0 -16.168203030381882 0 0 0
2 1 3 0 -1.22802 0.709 -16.168203030381882 0 0 0
3 1 3 0 -1.22802 2.127 -16.168203030381882 0 0 0
4 1 3 0 0 2.836 -16.168203030381882 0 0 0
5 1 3 0 2.45605 0 -16.168203030381882 0 0 0
6 1 3 0 1.22802 0.709 -16.168203030381882 0 0 0
7 1 3 0 1.22802 2.127 -16.168203030381882 0 0 0
8 1 3 0 2.45605 2.836 -16.168203030381882 0 0 0
9 1 3 0 4.9121 0 -16.168203030381882 0 0 0
10 1 3 0 3.68407 0.709 -16.168203030381882 0 0 0
11 1 3 0 3.68407 2.127 -16.168203030381882 0 0 0
12 1 3 0 4.9121 2.836 -16.168203030381882 0 0 0
14 1 3 0 6.14012 0.709 -16.168203030381882 0 0 0
15 1 3 0 6.14012 2.127 -16.168203030381882 0 0 0
53 1 3 0 0 4.254 -16.168203030381882 0 0 0
54 1 3 0 -1.22802 4.963 -16.168203030381882 0 0 0
55 1 3 0 -1.22802 6.381 -16.168203030381882 0 0 0
56 1 3 0 0 7.09 -16.168203030381882 0 0 0
57 1 3 0 2.45605 4.254 -16.168203030381882 0 0 0
58 1 3 0 1.22802 4.963 -16.168203030381882 0 0 0
59 1 3 0 1.22802 6.381 -16.168203030381882 0 0 0
60 1 3 0 2.45605 7.09 -16.168203030381882 0 0 0
61 1 3 0 4.9121 4.254 -16.168203030381882 0 0 0
62 1 3 0 3.68407 4.963 -16.168203030381882 0 0 0
63 1 3 0 3.68407 6.381 -16.168203030381882 0 0 0
64 1 3 0 4.9121 7.09 -16.168203030381882 0 0 0
66 1 3 0 6.14012 4.963 -16.168203030381882 0 0 0
67 1 3 0 6.14012 6.381 -16.168203030381882 0 0 0
13 1 3 0 7.36814 0 -16.168203030381882 0 0 0
16 1 3 0 7.36814 2.836 -16.168203030381882 0 0 0
17 1 3 0 9.82419 0 -16.168203030381882 0 0 0
18 1 3 0 8.59617 0.709 -16.168203030381882 0 0 0
19 1 3 0 8.59617 2.127 -16.168203030381882 0 0 0
20 1 3 0 9.82419 2.836 -16.168203030381882 0 0 0
21 1 3 0 12.2802 0 -16.168203030381882 0 0 0
22 1 3 0 11.0522 0.709 -16.168203030381882 0 0 0
23 1 3 0 11.0522 2.127 -16.168203030381882 0 0 0
24 1 3 0 12.2802 2.836 -16.168203030381882 0 0 0
26 1 3 0 13.5083 0.709 -16.168203030381882 0 0 0
27 1 3 0 13.5083 2.127 -16.168203030381882 0 0 0
65 1 3 0 7.36814 4.254 -16.168203030381882 0 0 0
68 1 3 0 7.36814 7.09 -16.168203030381882 0 0 0
69 1 3 0 9.82419 4.254 -16.168203030381882 0 0 0
70 1 3 0 8.59617 4.963 -16.168203030381882 0 0 0
71 1 3 0 8.59617 6.381 -16.168203030381882 0 0 0
72 1 3 0 9.82419 7.09 -16.168203030381882 0 0 0
73 1 3 0 12.2802 4.254 -16.168203030381882 0 0 0
74 1 3 0 11.0522 4.963 -16.168203030381882 0 0 0
75 1 3 0 11.0522 6.381 -16.168203030381882 0 0 0
76 1 3 0 12.2802 7.09 -16.168203030381882 0 0 0
78 1 3 0 13.5083 4.963 -16.168203030381882 0 0 0
79 1 3 0 13.5083 6.381 -16.168203030381882 0 0 0
3086 753 1 -1.1128 2.614500451572288 2.1213808409356223 -12.613505315970267 0 2 0
3088 753 2 0.5564 2.5406056095246816 2.123691120431787 -11.659161913791687 0 2 0
1267 146 2 0.5564 2.7648967261537463 6.806480315050236 -13.057420007984762 1 0 0
3087 753 2 0.5564 1.7260832258250758 1.9440911240756706 -12.922568222887133 0 2 0
1788 320 2 0.5564 4.416482518249359 6.122942944638482 -10.07593331473819 1 3 0
2450 541 1 -1.1128 2.053190749877067 3.132862453460159 -10.094561615575678 -5 2 0
2214 462 2 0.5564 3.9113298122432583 3.4034468843067613 -13.189512110353776 2 -1 0
2840 671 1 -1.1128 -0.9403115641322828 2.755707904198557 -10.17385746809246 2 -4 0
1789 320 2 0.5564 4.331978421202556 7.116727921386747 -11.214857281765235 1 3 0
1787 320 1 -1.1128 4.684479740859242 7.0054907689331225 -10.331904688175335 1 3 0
1266 146 2 0.5564 4.128930316399651 6.256962008046313 -13.417055375274211 1 0 0
3620 931 1 -1.1128 0.20122310821245523 5.1047769190376995 -10.977060233294111 1 -3 0
1265 146 1 -1.1128 3.7010737661533755 6.973304500799777 -12.947987436224247 1 0 0
3704 959 1 -1.1128 13.27592268362492 0.824386056270484 -3.97381095838916 -4 0 0
2791 654 2 0.5564 -0.0697337404275257 0.6742926786141823 -8.020968737051005 0 3 0
2922 698 2 0.5564 3.5949102696318356 0.5300629634368014 -12.383178520176148 2 -1 0
3779 984 1 -1.1128 10.792646297755171 7.16033386761722 -10.13725152840024 0 1 0
3809 994 1 -1.1128 3.804256086219354 4.8765425618183285 -8.863169359997437 5 1 0
2215 462 2 0.5564 5.045930392436408 3.5959005859796305 -12.205876864986692 2 -1 0
2213 462 1 -1.1128 4.570728896133589 4.038192628909974 -12.909292576791414 2 -1 0
1592 255 1 -1.1128 -1.0236059403010926 3.9974307893795675 -1.6176571104210768 0 -3 0
3810 994 2 0.5564 3.1875032397861602 5.004132016224296 -8.142357850167755 5 1 0
1946 373 1 -1.1128 -0.07170634881863788 1.732815725286947 -12.964995986294634 -1 1 0
3811 994 2 0.5564 4.468548409766513 4.2854437425368666 -8.508836998003282 5 1 0
3221 798 1 -1.1128 5.497630306565765 2.497244305289884 -10.873805035890157 1 1 0
1977 383 2 0.5564 2.7234611731082974 0.8688520022035963 -9.537416409858974 6 2 0
3223 798 2 0.5564 4.799485673816586 1.9259994782896388 -10.553631769084882 1 1 0
2451 541 2 0.5564 2.7375346325184444 3.724646656884091 -9.781991819413156 -5 2 0
2452 541 2 0.5564 1.3600094034599373 3.712810069293538 -10.409829947310484 -5 2 0
2841 671 2 0.5564 -0.6241480142710719 2.275658657862265 -10.939251647170996 2 -4 0
3944 1039 1 -1.1128 0.8006549760503074 6.8171582673764455 -12.878377008280811 -4 1 0
934 35 2 0.5564 3.7047936771489804 7.135864468817248 -7.922031574657633 1 1 0
3621 931 2 0.5564 0.6902490266119565 5.7376448491904695 -11.502954046300943 1 -3 0
1976 383 1 -1.1128 3.5488911511978767 0.7038908201527584 -9.993141470367817 6 2 0
2161 444 2 0.5564 -1.0806407981250854 4.695823512166767 -12.366844154660097 -5 -1 0
2728 633 2 0.5564 6.6090539767235 3.7415647302927644 -10.145393372208028 0 0 0
1947 373 2 0.5564 -0.3130960496376282 2.55776674928636 -13.386212276511595 -1 1 0
1948 373 2 0.5564 -0.8749377585720401 1.2123658035502427 -12.978626206165396 -1 1 0
3222 798 2 0.5564 6.00795048269111 1.9441507235164204 -11.465323315377391 1 1 0
1614 262 2 0.5564 7.093540468908796 0.3177722033373554 -12.986839011141585 -1 1 0
2790 654 2 0.5564 0.3412989348743373 1.7825371986021417 -8.96687736962839 0 3 0
2332 501 2 0.5564 13.747748082897942 6.643294486448524 -11.909850969526932 3 -4 0
2159 444 1 -1.1128 -1.3752542972140613 4.23555425274155 -13.15271193714058 -5 -1 0
1343 172 1 -1.1128 7.872856910138326 3.0687216667974506 -1.5661793484879711 -3 1 0
3206 793 1 -1.1128 9.056802225505105 6.706847472426031 -6.861292743743201 -3 -4 0
1866 346 2 0.5564 -1.6689109973253795 7.131743878500909 -8.775109569963421 0 0 0
2789 654 1 -1.1128 0.6938690921993576 1.054296413765755 -8.455412148062 0 3 0
1865 346 1 -1.1128 -1.6719051870933244 6.174894355298582 -8.800844995447171 0 0 0
1207 126 2 0.5564 4.679174725132932 2.818455273111497 -0.5950393160184559 1 2 0
1735 302 2 0.5564 7.674313418714806 1.967560689060058 -6.442077271675029 1 0 0
1178 117 1 -1.1128 9.632001320800075 -0.48829631967876436 -6.014084800590291 1 -3 0
1293 155 2 0.5564 12.523856561593238 5.142481393626107 -1.1440956449492243 -3 0 0
1329 167 2 0.5564 6.472785526598987 0.13387541262513172 -2.920959542277492 3 0 0
2614 595 2 0.5564 8.861803492383455 7.116610528282961 -9.818882213531452 0 5 0
2726 633 1 -1.1128 7.204614775145018 4.490749802212696 -10.129223596488451 0 0 0
2727 633 2 0.5564 7.813849025616479 4.29768243001554 -9.416629021798185 0 0 0
2285 486 1 -1.1128 12.989112267884163 1.4966292602564737 -9.993309808476814 -2 -1 0
2286 486 2 0.5564 12.347661569856674 0.8226910363476243 -10.218212846103775 -2 -1 0
2287 486 2 0.5564 13.526242122199603 1.5888491791838188 -10.78021644194959 -2 -1 0
2085 419 2 0.5564 7.158057444524928 6.550053078406216 -12.569066041492324 3 2 0
1615 262 2 0.5564 6.722338513550436 1.551667814960462 -13.781575959645778 -1 1 0
2488 553 2 0.5564 10.276888719057478 5.876116885104538 -13.01960819222758 4 -2 0
2256 476 2 0.5564 12.099894846190283 6.064802413636568 -10.825785007646475 -1 -1 0
3060 744 2 0.5564 12.583797953341556 0.18346015924974282 -13.03967905751894 0 -3 0
1397 190 1 -1.1128 7.3335594013788254 4.627106619661379 -12.897403687584358 -3 -1 0
2120 431 1 -1.1128 11.776539869666104 1.8715459130818086 -13.163087362481843 -2 -2 0
3216 796 2 0.5564 8.74760369278685 1.7471607618145784 -12.082002803284203 -4 -2 0
2255 476 1 -1.1128 12.535030908012725 5.475869038649871 -11.442264919638946 -1 -1 0
3217 796 2 0.5564 10.114897379931296 2.2387979996953846 -11.656915194490127 -4 -2 0
3215 796 1 -1.1128 9.293948813597643 1.8904106533568572 -11.309200227604947 -4 -2 0
2486 553 1 -1.1128 10.270698183722754 4.974058724363561 -12.699473789901992 4 -2 0
1399 190 2 0.5564 6.387600112840695 4.5932876831933935 -13.039710238060737 -3 -1 0
4362 1178 2 0.5564 8.976493202729293 2.8696740582855873 -8.29942576196072 -3 -1 0
2121 431 2 0.5564 12.683720108849183 2.1596040822295444 -13.061691227660667 -2 -2 0
2122 431 2 0.5564 11.566434935166587 2.057873715552997 -14.07816654557413 -2 -2 0
1398 190 2 0.5564 7.44282180355756 4.440051553931902 -11.96503646515144 -3 -1 0
1640 271 1 -1.1128 14.045574167771258 4.189259098024136 -9.435930143327823 -2 2 0
1641 271 2 0.5564 13.58759015953584 4.584070405469596 -10.177960741843307 -2 2 0
1642 271 2 0.5564 13.951730914976057 3.246182503950347 -9.570216369347081 -2 2 0
2257 476 2 0.5564 11.823826437585758 4.965027655873578 -11.828868768056557 -1 -1 0
2487 553 2 0.5564 9.383924359126024 4.661705519388302 -12.879196083913847 4 -2 0
850 7 2 0.5564 8.898170369730133 0.6595427104016375 -9.958237266606584 -2 0 0
2086 419 2 0.5564 7.209989608088724 7.506946126946269 -11.397078161086831 3 2 0
1613 262 1 -1.1128 7.312411276891827 1.2434568320145176 -13.093787715257465 -1 1 0
2613 595 2 0.5564 7.587732483961644 6.306667132159689 -9.706470704508751 0 5 0
1330 167 2 0.5564 6.808843070910382 -0.33687282379601047 -1.5219019961465081 3 0 0
3622 931 2 0.5564 -0.3394028762047021 5.641298340723881 -10.397318541799631 1 -3 0
1923 365 2 0.5564 -0.8237227742414673 4.991887395339473 -5.717579159561949 -4 4 0
1978 383 2 0.5564 3.4968471935134744 -0.21412372037266314 -10.259174250686575 6 2 0
1180 117 2 0.5564 9.918330784044004 -0.4562133508682835 -5.101274720824605 1 -3 0
3828 1000 2 0.5564 1.4251514958170883 6.395510214763789 -9.33627074487035 2 -3 0
3297 823 2 0.5564 13.991417324471817 4.889243620258308 -4.420052250036765 3 0 0
4361 1178 1 -1.1128 9.321423313372893 3.577804725211776 -8.843309170977847 -3 -1 0
4363 1178 2 0.5564 9.336401946722214 3.2147526321964315 -9.728860844876147 -3 -1 0
2612 595 1 -1.1128 7.9355473818316264 7.190684984899318 -9.589104315389843 0 5 0
1733 302 1 -1.1128 8.20975951470309 1.607282624835008 -7.148995923699252 1 0 0
3463 878 2 0.5564 -1.081570953423091 3.1764575498847707 -4.6605216765909345 5 -1 0
3348 840 2 0.5564 11.725792753064463 7.6047480186845755 -0.6509359164664876 -4 4 0
4310 1161 1 -1.1128 2.2054023381752517 2.65233530773392 -6.768461829744348 2 0 0
4329 1167 2 0.5564 4.007697414622095 2.77138648628499 -7.055892886770543 -2 -4 0
1534 235 2 0.5564 13.567625798231877 -0.3644892848834708 -5.623808695041492 -1 -2 0
2422 531 2 0.5564 2.3173195831107125 0.014122984020127951 -4.539831201185141 -4 -1 0
4311 1161 2 0.5564 1.876328610426586 2.0710406116785705 -7.454057881383422 2 0 0
2384 519 1 -1.1128 2.4803076489978797 4.691919263318073 -2.085631026286441 -2 1 0
1205 126 1 -1.1128 4.997412905048419 2.709326314209555 -1.4911699120473791 1 2 0
1594 255 2 0.5564 -0.4518014018241938 4.495395447974264 -1.033444714907009 0 -3 0
4312 1161 2 0.5564 1.8413553197544237 2.2971885931656058 -5.957551069309415 2 0 0
2867 680 1 -1.1128 1.136948833177845 1.5582786513892473 -0.7849951076723031 0 -1 0
2730 634 2 0.5564 9.920176658403632 5.831461129236163 -1.4077768784593838 5 -4 0
4061 1078 1 -1.1128 1.5849877192422637 6.8790334369436685 -3.5264184737846036 0 -1 0
2765 646 1 -1.1128 -0.9638076712215274 -0.6048202302482775 -5.859391235534251 -2 2 0
2095 422 2 0.5564 4.865393477590097 1.5179484234901095 -2.845399554267883 -1 4 0
2936 703 1 -1.1128 1.1328180566011818 1.4293188516545952 -4.473534947620412 -5 1 0
4231 1134 2 0.5564 4.710645097224777 6.116316091674578 -4.549717699158916 -4 0 0
4328 1167 1 -1.1128 4.8945223936770255 2.86219220708794 -7.40450660602557 -2 -4 0
4062 1078 2 0.5564 2.423621886405133 7.013080099527298 -3.967957255800853 0 -1 0
2386 519 2 0.5564 2.689377175088966 4.829717105705194 -1.1617594363284665 -2 1 0
2093 422 1 -1.1128 5.07905272258512 1.0999370504112604 -3.679577608435541 -1 4 0
1867 346 2 0.5564 -1.4681740244383705 5.910056685162089 -7.9038573366164355 0 0 0
2759 644 1 -1.1128 6.812180772857304 2.709026804846912 -5.260787672789351 2 -1 0
1924 365 2 0.5564 -1.6592936687548687 6.2536094090594165 -5.7597056216716735 -4 4 0
1406 193 1 -1.1128 6.14440288586182 5.226147044404646 -3.853495132963183 2 0 0
1408 193 2 0.5564 5.739077859427025 5.504948470927912 -3.0323897801380766 2 0 0
1407 193 2 0.5564 6.49098289963973 4.353820699232385 -3.6659823553463324 2 0 0
2745 639 2 0.5564 1.7854474954433532 4.449671524444418 -7.043987521024517 0 1 0
2744 639 1 -1.1128 1.801855534406924 5.405216331533397 -7.0978478653355275 0 1 0
2760 644 2 0.5564 6.390327166867695 2.064909655092259 -4.692118281970386 2 -1 0
4239 1137 2 0.5564 12.190774072276819 0.31367706625183 -0.9500518950874934 1 1 0
1922 365 1 -1.1128 -0.9741200555822218 5.783265764371099 -6.234622581247891 -4 4 0
2746 639 2 0.5564 0.8824225753390267 5.664749230423556 -7.038528556016832 0 1 0
2094 422 2 0.5564 4.390943385146669 0.4462154551156219 -3.8036214022948442 -1 4 0
2868 680 2 0.5564 1.699382599903783 2.2705908317693706 -1.0891525108045763 0 -1 0
4330 1167 2 0.5564 5.413876305759605 3.170594523117257 -6.661948458994199 -2 -4 0
4208 1127 1 -1.1128 11.565276227290939 2.9885849937675255 -3.9799893875982812 3 -1 0
1820 331 1 -1.1128 4.9301011203916305 6.292062883913656 -1.7240319327964855 5 3 0
3946 1039 2 0.5564 -0.14445845979994876 6.889512454605166 -13.011635673880924 -4 1 0
2869 680 2 0.5564 1.5332532897113953 0.7670583062763326 -1.1498917269393945 0 -1 0
4063 1078 2 0.5564 1.6610768784608323 6.0137154480404655 -3.12433927402052 0 -1 0
3124 765 2 0.5564 5.03196911009982 -0.315415092764339 -8.449882365033412 -1 0 0
2385 519 2 0.5564 3.322906270356838 4.497143104605032 -2.4959015952173687 -2 1 0
4229 1134 1 -1.1128 4.077378644416654 6.825764024091659 -4.658775952338643 -4 0 0
3123 765 2 0.5564 5.572505944399938 0.7629339099854497 -7.535071347045011 -1 0 0
3945 1039 2 0.5564 1.0530860281176366 7.6548373521536766 -12.490041064618307 -4 1 0
932 35 1 -1.1128 4.067410356611452 7.7244642008558655 -7.259994564421661 1 1 0
1345 172 2 0.5564 8.396770675561168 3.848724179951276 -1.748783124999721 -3 1 0
2084 419 1 -1.1128 7.230215895067495 7.479912853170478 -12.353684163849634 3 2 0
3347 840 1 -1.1128 11.49970447743242 6.72164949007015 -0.3589479634641224 -4 4 0
2842 671 2 0.5564 -0.5825089479975349 3.6372901805142197 -10.278856238742296 2 -4 0
4230 1134 2 0.5564 4.167736261456262 7.089443811948243 -5.574497700481172 -4 0 0
4302 1158 2 0.5564 10.951616453690963 4.189271556332629 -7.147460659391445 -4 -2 0
3298 823 2 0.5564 13.01037782303868 4.435809630326545 -5.48017243642461 3 0 0
4303 1158 2 0.5564 10.188949139395861 5.056885095731446 -6.16895082241226 -4 -2 0
848 7 1 -1.1128 8.731378847041514 -0.012981419080779145 -9.297836568262039 -2 0 0
991 54 2 0.5564 8.675995217069337 6.552382018893445 -4.99184622506981 -2 2 0
849 7 2 0.5564 8.215828619959833 0.4331024809148069 -8.625933460405497 -2 0 0
3461 878 1 -1.1128 -0.5959655168935533 3.9596621386225337 -4.401658248890446 5 -1 0
1206 126 2 0.5564 5.949142781873361 2.780946017399478 -1.4182464874001144 1 2 0
990 54 2 0.5564 7.443900494518871 6.287795708387568 -4.152896176012194 -2 2 0
3705 959 2 0.5564 12.711261017224697 1.5883055399949433 -4.091368704084591 -4 0 0
989 54 1 -1.1128 8.346120346033649 6.602196996487658 -4.094664774331859 -2 2 0
4240 1137 2 0.5564 12.473940239021422 -0.07380151727863213 -2.3858705886035234 1 1 0
1822 331 2 0.5564 3.9905550136302206 6.469648099319449 -1.6798888261033307 5 3 0
1344 172 2 0.5564 8.387766083624046 2.5783866267510076 -0.9253408965079901 -3 1 0
2921 698 1 -1.1128 4.159220426702006 -0.22395610421726908 -12.554186071157211 2 -1 0
4209 1127 2 0.5564 11.025999664718295 3.6630227008639995 -4.392964227342921 3 -1 0
4210 1127 2 0.5564 11.772102547074995 3.342908518184509 -3.115171111087916 3 -1 0
2761 644 2 0.5564 7.740034693551029 2.6613159275639005 -5.03047541740857 2 -1 0
3122 765 1 -1.1128 5.575874004546512 -0.18423775702393458 -7.673227760761902 -1 0 0
1734 302 2 0.5564 8.94158035436151 1.1813841835024235 -6.702584094594513 1 0 0
2731 634 2 0.5564 8.90603636657567 5.85484299931565 -2.5315524772848725 5 -4 0
3420 864 2 0.5564 -1.3810022900816858 1.254935885288045 -5.559927181411876 -1 2 0
2729 634 1 -1.1128 9.34871930845965 5.262639104395844 -1.923636207432257 5 -4 0
3827 1000 1 -1.1128 1.551201760489951 7.3168189300972 -9.56328129287712 2 -3 0
2793 655 2 0.5564 8.588851061286626 2.5838169839890655 -3.122366213405368 -1 3 0
4301 1158 1 -1.1128 10.815548511663902 4.334511396410169 -6.211178573776256 -4 -2 0
1294 155 2 0.5564 12.351829199054587 3.884424810886458 -0.31971931968611694 -3 0 0
2794 655 2 0.5564 9.859041385116658 2.418349272817534 -3.929297136559962 -1 3 0
3477 883 2 0.5564 0.14101816099603298 -0.548562235046215 -9.548501862086262 1 0 0
3207 793 2 0.5564 8.847521790960375 6.832657033751381 -7.786822783956731 -3 -4 0
3208 793 2 0.5564 9.424496290347466 7.545401837087481 -6.582250643634944 -3 -4 0
1292 155 1 -1.1128 12.778730836829729 4.220552602399258 -1.1077592613684157 -3 0 0
2937 703 2 0.5564 0.4359719899731675 0.811067316312744 -4.693541612031923 -5 1 0
4238 1137 1 -1.1128 11.8801496517422 -0.2524068820464914 -1.6566590521300883 1 1 0
2792 655 1 -1.1128 8.938361181303014 2.157602365987588 -3.9049390121359675 -1 3 0
1821 331 2 0.5564 5.342611897027094 7.139729659074359 -1.5581128794400567 5 3 0
3780 984 2 0.5564 10.418490986993227 7.355691455497379 -10.996364774463277 0 1 0
3458 877 1 -1.1128 12.046612451458767 7.252224927530226 -3.676350362980051 1 3 0
3460 877 2 0.5564 11.369340905011105 7.7045010490979084 -4.179325270594097 1 3 0
3296 823 1 -1.1128 13.937216772334079 4.629390181596563 -5.339710329224132 3 0 0
2938 703 2 0.5564 0.7005361328434474 2.0999303063226518 -3.944719973344048 -5 1 0
3462 878 2 0.5564 -0.7304413509606293 4.023826683071394 -3.456125932700561 5 -1 0
3280 817 2 0.5564 9.184402807727423 -0.1194268482770188 -3.2595354838373125 -2 0 0
1328 167 1 -1.1128 6.824741911717751 -0.6138683356206612 -2.438010336222557 3 0 0
3279 817 2 0.5564 10.435130235548804 -0.5896756597914026 -2.547887620833566 -2 0 0
1801 324 2 0.5564 13.85452627485126 1.2863886409879832 -8.528896535555713 -6 2 0
3829 1000 2 0.5564 1.3059034386978168 7.794901089204939 -8.771132788180106 2 -3 0
2368 513 2 0.5564 -1.5173939433599148 6.744349691309422 5.594790248129942 3 6 0
2805 659 2 0.5564 5.674770242385365 3.333747702146537 1.5903484294011256 -4 4 0
2804 659 1 -1.1128 4.758437788907425 3.2239921513428826 1.336330211573199 -4 4 0
2806 659 2 0.5564 4.384238208563855 2.6698835536962955 2.0212932489516704 -4 4 0
4364 1179 1 -1.1128 -0.22500193589983616 0.8115242642437274 3.973276416830743 -1 0 0
2699 624 1 -1.1128 1.5981716624034434 2.5007772320616195 5.181016705893638 3 4 0
4366 1179 2 0.5564 -1.0646833017366806 1.2441193637562094 4.128291226132831 -1 0 0
4365 1179 2 0.5564 -0.3799941502859214 0.2524914252152795 3.2119010112789557 -1 0 0
2436 536 2 0.5564 -1.7736988717407094 1.949480180723896 16.124316398069585 0 3 0
1307 160 1 -1.1128 2.4854317783429067 -0.34930208479994657 5.178209155772968 0 0 0
4046 1073 1 -1.1128 -1.4899639771702047 1.456915670568128 10.325075825564916 4 -1 0
3778 983 2 0.5564 10.728233580860932 0.12317584383529379 8.062342269123624 -1 0 0
3457 876 2 0.5564 1.013645814668858 7.207952077502702 9.156542711877204 -4 -1 0
3169 780 2 0.5564 4.819323302717788 0.004580974069881094 15.448941538724675 -1 3 0
1859 344 1 -1.1128 -1.525496406215928 3.48977240217333 3.612835082609713 2 2 0
900 24 2 0.5564 1.3010482598295046 -0.37312037892445765 1.587201482930363 -1 1 0
3543 905 2 0.5564 4.069288605007296 2.914586055829767 6.486901101569157 -4 2 0
3542 905 1 -1.1128 4.51737024437264 3.72566457089702 6.726915549596218 -4 2 0
3544 905 2 0.5564 5.432850361474593 3.4698168747577003 6.839484638474515 -4 2 0
1283 152 1 -1.1128 5.041619030810587 6.488957381318371 2.5198127414520064 5 -4 0
1285 152 2 0.5564 4.6885212278034345 5.605578725163388 2.625628858939401 5 -4 0
2701 624 2 0.5564 0.8715071590700746 2.287173776859992 4.595723808080174 3 4 0
2700 624 2 0.5564 1.4506985056580148 3.4150949054958826 5.422907621966525 3 4 0
4284 1152 2 0.5564 9.079795620575814 -0.20638393794958965 11.79650500016888 0 4 0
899 24 1 -1.1128 2.1583443234878517 -0.0037523330657366766 1.3754378744557758 -1 1 0
3662 945 1 -1.1128 3.481497083751425 1.7759942723295656 3.344454630630904 -3 -1 0
1107 93 2 0.5564 0.4093221273109596 5.5684995502018 5.670072176425775 -2 1 0
3167 780 1 -1.1128 4.61379473526508 -0.1468089648801845 16.371476972620748 -1 3 0
3776 983 1 -1.1128 11.077830798518283 -0.1593282814321246 8.907449601769464 -1 0 0
3444 872 2 0.5564 -0.20030065305811307 2.851389777369374 17.36559283523933 -1 -2 0
1309 160 2 0.5564 2.9736254204250936 0.08910717631917135 5.875131938948406 0 0 0
2100 424 2 0.5564 10.149046148864874 1.7161848707471714 0.4629892062533424 2 0 0
3156 776 2 0.5564 13.386133782980423 2.2895277797852804 8.2997040222817 -7 -3 0
3354 842 2 0.5564 1.9363291082892375 6.910235247791797 4.1744324047277575 0 1 0
3021 731 2 0.5564 4.803835297892146 5.307459926548656 5.751120405050563 -1 4 0
3020 731 1 -1.1128 4.752115117687547 6.233100204214723 5.51289732606016 -1 4 0
2042 405 1 -1.1128 -1.3760103683264806 1.642312689095461 0.3698362396782613 1 2 0
2437 536 2 0.5564 -1.432521099159141 0.4760607217270453 16.191620363647907 0 3 0
3744 972 2 0.5564 6.808386045554751 7.48271179433565 7.247280094405808 1 -2 0
3553 908 2 0.5564 0.014136113268107344 5.446726927463886 1.7563585836166784 1 5 0
3552 908 2 0.5564 -0.2733876535551452 4.037015729739345 2.2274647658998052 1 5 0
487 2 4 0 8.59617 6.381 20.3563331933874 0 0 0
2044 405 2 0.5564 -1.8299257165945484 2.413080540101363 0.029087367033817833 1 2 0
1106 93 1 -1.1128 1.299835320527906 5.241199708430576 5.796944759961783 -2 1 0
1108 93 2 0.5564 1.5376576764089196 5.528174775616822 6.6786012587323995 -2 1 0
1378 183 2 0.5564 12.869985764424017 -0.36093886674264597 8.41888650715807 -1 2 0
4337 1170 1 -1.1128 2.6962159717344907 5.187726453360045 0.5460166199521433 -6 0 0
3022 731 2 0.5564 4.864444269831773 6.242916055109301 4.562361844796452 -1 4 0
439 2 4 0 11.0522 2.127 20.3563331933874 0 0 0
3551 908 1 -1.1128 0.16677479331714382 4.528343063803748 1.5338597983504336 1 5 0
3766 979 2 0.5564 -0.7205981092766578 0.13045266449942897 1.2382229870040184 -2 0 0
2366 513 1 -1.1128 -1.411112030367831 5.799797516795241 5.48181760974379 3 6 0
2099 424 1 -1.1128 9.210018891979706 1.8225474919883295 0.31084457392354375 2 0 0
3663 945 2 0.5564 3.0934426210015182 0.9118690096456765 3.2068467841449135 -3 -1 0
3549 907 2 0.5564 7.694057895051303 7.196666170514965 12.777904568875536 -2 4 0
1308 160 2 0.5564 1.7467819989302145 0.23278010635485968 4.999854648497429 0 0 0
495 2 4 0 13.5083 6.381 20.3563331933874 0 0 0
1862 345 1 -1.1128 11.146569671317526 -0.2799974833795461 17.07890676595596 -3 1 0
492 2 4 0 12.2802 7.09 20.3563331933874 0 0 0
4338 1170 2 0.5564 1.9469755999221208 4.900158853707482 1.0677241411483256 -6 0 0
2846 673 1 -1.1128 7.414322174724985 3.0861921532206007 1.9959519298663104 2 6 0
2847 673 2 0.5564 8.134639257540883 2.7296613629446047 1.476080563994867 2 6 0
2848 673 2 0.5564 7.8002626735816545 3.825731783236325 2.4653826889205943 2 6 0
4149 1107 2 0.5564 12.318017035205735 1.1294073454717926 6.7515293144861985 0 0 0
4314 1162 2 0.5564 6.34506733344173 -0.6144870230081363 11.262094238250658 2 -1 0
4339 1170 2 0.5564 3.362821511184368 4.516749413071761 0.6931904028260101 -6 0 0
2976 716 2 0.5564 9.509082512195821 -0.5279250273433046 3.4650521245643033 0 -1 0
2426 533 1 -1.1128 3.4265381025246597 -0.2308590775347913 9.653942635459373 1 -1 0
3606 926 2 0.5564 11.409602777148365 2.5702553322153108 1.9367710732345176 2 2 0
3015 729 2 0.5564 9.862798402624914 5.1614904198838465 6.455349253100125 2 7 0
1792 321 2 0.5564 13.336405979077664 6.922750726842823 15.709999291263403 0 -1 0
2813 662 1 -1.1128 13.425943053882 2.4125348321671947 4.039275763541769 0 1 0
2836 669 2 0.5564 9.891224109287482 4.033034215874725 3.3393028870246817 3 2 0
2834 669 1 -1.1128 9.450197567672067 4.879414747348593 3.265997041511284 3 2 0
2835 669 2 0.5564 9.024429315128168 5.002446966752285 4.114418380321621 3 2 0
1375 182 2 0.5564 10.301705743979083 1.7167211098945183 3.833811675730482 -2 -2 0
2972 715 1 -1.1128 8.886034320017933 7.421601623996776 16.56639556578833 -1 -2 0
2814 662 2 0.5564 13.55637269017412 3.224696133197255 3.549771281728107 0 1 0
485 2 4 0 9.82419 4.254 20.3563331933874 0 0 0
3014 729 1 -1.1128 8.97268551323821 5.278041486126249 6.123157893838989 2 7 0
2442 538 2 0.5564 4.024695594617949 -0.4455138437486472 1.250060047443102 0 0 0
1010 61 1 -1.1128 5.237308393773543 0.08743783967215417 13.753041011081699 2 -3 0
1373 182 1 -1.1128 10.763127372056536 2.5128852690293293 3.5702775761555934 -2 -2 0
2013 395 2 0.5564 13.828488180037624 5.712983864733742 3.512225214307903 3 3 0
1374 182 2 0.5564 11.62315238762836 2.4399655518530055 3.984130233009718 -2 -2 0
3605 926 1 -1.1128 11.800324510680786 2.5383555891461227 1.06352912022592 2 2 0
3155 776 1 -1.1128 13.520621126655845 2.5387096361186225 9.214063979858368 -7 -3 0
2929 700 2 0.5564 -0.7024699914063156 -0.5564464215715991 7.612123829394634 -1 -1 0
2611 594 2 0.5564 7.3421160320886765 7.70334868956376 2.2153266821605353 -2 3 0
3824 999 1 -1.1128 13.95967170774111 1.0784791363372865 1.322058071128098 3 2 0
2610 594 2 0.5564 8.796486834424705 7.385865805446826 1.939815631453617 -2 3 0
1234 135 2 0.5564 11.811035712361734 6.264771180352794 7.03779732892171 -2 1 0
3825 999 2 0.5564 13.785050653983543 0.5780334046361231 2.1191123295141376 3 2 0
3664 945 2 0.5564 2.879719404285896 2.2165163302601845 3.944488800147253 -3 -1 0
986 53 1 -1.1128 13.77065325182738 2.7440797050461407 17.31099158452079 -1 -1 0
4148 1107 1 -1.1128 11.885492047969056 1.848102341678558 6.290408102329623 0 0 0
3745 972 2 0.5564 5.6381421355468 6.555188992816378 6.998026968294732 1 -2 0
1233 135 2 0.5564 11.517277859981503 5.108164124962977 7.969389173047005 -2 1 0
1232 135 1 -1.1128 11.635439879711942 5.3238366872091225 7.044318834626393 -2 1 0
1674 282 2 0.5564 9.928726089880676 1.6849813028054081 7.16846436274511 -7 1 0
4150 1107 2 0.5564 12.584238254169636 2.2645146764286928 5.7858414764999635 0 0 0
2101 424 2 0.5564 8.834649783191555 0.9671563986283603 0.5197436012283897 2 0 0
3355 842 2 0.5564 2.937518815750789 7.299043029594911 3.107500168353633 0 1 0
2374 515 2 0.5564 12.920577967145572 7.109898060367441 17.488613808179924 0 3 0
3550 907 2 0.5564 6.386053434467387 7.672611478108648 13.373300469377668 -2 4 0
2716 629 2 0.5564 5.048689702095726 0.6897081253694104 7.229906522464765 -1 4 0
3157 776 2 0.5564 13.832891106806978 3.442611597423201 9.17303207254563 -7 -3 0
995 56 1 -1.1128 10.586682054353247 7.153153239954685 2.8187456271807823 2 -2 0
1351 174 2 0.5564 6.523024714581802 -0.18158931746431173 0.7512283392777157 2 -2 0
490 2 4 0 11.0522 4.963 20.3563331933874 0 0 0
1684 285 2 0.5564 0.33464483495547875 3.2682669587647686 11.433762470928754 2 0 0
3456 876 2 0.5564 1.9652222862243203 6.041078904015503 9.31404584679453 -4 -1 0
4423 1198 2 0.5564 -0.0845578860371988 4.189675083406923 14.266084282359474 3 0 0
2796 656 2 0.5564 10.870060844506067 1.219642696185356 15.820634174814305 1 3 0
2457 543 2 0.5564 7.839855876860606 3.8516527620239938 6.35617532882146 -3 2 0
2458 543 2 0.5564 7.647045166374192 2.385567657510935 6.6806972686254475 -3 2 0
2456 543 1 -1.1128 7.175717622716405 3.162772342826394 6.380637613425595 -3 2 0
3309 827 2 0.5564 -0.2588542833233633 2.0150377881662807 8.058427571521086 -4 -1 0
2296 489 2 0.5564 -1.103005501158412 4.407005189404431 10.066429114061622 -4 3 0
3796 989 2 0.5564 -0.9382197782990623 6.621581497914211 11.43971991990481 -3 2 0
3467 880 1 -1.1128 -0.2898435117723538 4.09613107368028 8.449226380729856 3 1 0
3468 880 2 0.5564 -1.081924037796225 4.180468628847849 7.918445652619561 3 1 0
3308 827 1 -1.1128 -0.26445441431573335 1.4476139804005033 7.28756164719713 -4 -1 0
3310 827 2 0.5564 0.5325850996187409 1.6812734983034294 6.811782959432601 -4 -1 0
1878 350 2 0.5564 3.530784102436288 2.536539289589785 12.249968687759221 -2 1 0
3469 880 2 0.5564 0.22205797419151801 4.878046622027015 8.242348805301837 3 1 0
4128 1100 2 0.5564 4.568237464989907 3.380136622622077 8.686274317800851 -2 0 0
4127 1100 1 -1.1128 4.371033105156454 3.0376456172245065 9.558079397502016 -2 0 0
4129 1100 2 0.5564 5.195370746347767 2.6540588365333133 9.857347285133528 -2 0 0
918 30 2 0.5564 3.2541902483581135 4.722241783342178 13.899835294592672 1 2 0
917 30 1 -1.1128 3.8775492217282133 3.995896341394367 13.908693008543516 1 2 0
4421 1198 1 -1.1128 0.01212917805150178 3.253021182122034 14.438024959726881 3 0 0
4422 1198 2 0.5564 0.45394862677132936 2.9107275472583267 13.660938276682247 3 0 0
4250 1141 1 -1.1128 0.1437714714576181 6.219826572935773 14.271678945826208 0 7 0
4251 1141 2 0.5564 -0.6130595598372592 6.510534115098997 13.762827692414064 0 7 0
1054 75 2 0.5564 2.8977577483262746 7.266539671345986 12.718608689484453 0 0 0
1053 75 2 0.5564 2.6821669026440453 5.959288446714512 11.986139277041637 0 0 0
1052 75 1 -1.1128 2.6013094965000674 6.365784091275554 12.84896051434788 0 0 0