LAMMPS data file via write_data, version 2 Aug 2023, timestep = 6250000, units = real

4432 atoms
4 atom types
2400 bonds
1 bond types
1200 angles
1 angle types
0 impropers
1 improper types

-1.8420299999999998 30.08661 xlo xhi
-0.709 33.323 ylo yhi
-150 150 zlo zhi

Masses

1 15.9994
2 1.00794
3 12.0107
4 12.0107

Pair Coeffs # lj/cut/tip4p/long

1 0.1852 3.1589
2 0 0
3 0.0859 3.3997
4 0.0859 3.3997

Bond Coeffs # harmonic

1 5000 0.9572

Angle Coeffs # harmonic

1 500 104.52

Atoms # full

1 1 3 0 0 0 -16.168203030381882 0 0 0
2 1 3 0 -1.22802 0.709 -16.168203030381882 0 0 0
3 1 3 0 -1.22802 2.127 -16.168203030381882 0 0 0
4 1 3 0 0 2.836 -16.168203030381882 0 0 0
5 1 3 0 2.45605 0 -16.168203030381882 0 0 0
6 1 3 0 1.22802 0.709 -16.168203030381882 0 0 0
7 1 3 0 1.22802 2.127 -16.168203030381882 0 0 0
8 1 3 0 2.45605 2.836 -16.168203030381882 0 0 0
9 1 3 0 4.9121 0 -16.168203030381882 0 0 0
10 1 3 0 3.68407 0.709 -16.168203030381882 0 0 0
11 1 3 0 3.68407 2.127 -16.168203030381882 0 0 0
12 1 3 0 4.9121 2.836 -16.168203030381882 0 0 0
14 1 3 0 6.14012 0.709 -16.168203030381882 0 0 0
15 1 3 0 6.14012 2.127 -16.168203030381882 0 0 0
53 1 3 0 0 4.254 -16.168203030381882 0 0 0
54 1 3 0 -1.22802 4.963 -16.168203030381882 0 0 0
55 1 3 0 -1.22802 6.381 -16.168203030381882 0 0 0
56 1 3 0 0 7.09 -16.168203030381882 0 0 0
57 1 3 0 2.45605 4.254 -16.168203030381882 0 0 0
58 1 3 0 1.22802 4.963 -16.168203030381882 0 0 0
59 1 3 0 1.22802 6.381 -16.168203030381882 0 0 0
60 1 3 0 2.45605 7.09 -16.168203030381882 0 0 0
61 1 3 0 4.9121 4.254 -16.168203030381882 0 0 0
62 1 3 0 3.68407 4.963 -16.168203030381882 0 0 0
63 1 3 0 3.68407 6.381 -16.168203030381882 0 0 0
64 1 3 0 4.9121 7.09 -16.168203030381882 0 0 0
66 1 3 0 6.14012 4.963 -16.168203030381882 0 0 0
67 1 3 0 6.14012 6.381 -16.168203030381882 0 0 0
13 1 3 0 7.36814 0 -16.168203030381882 0 0 0
16 1 3 0 7.36814 2.836 -16.168203030381882 0 0 0
17 1 3 0 9.82419 0 -16.168203030381882 0 0 0
18 1 3 0 8.59617 0.709 -16.168203030381882 0 0 0
19 1 3 0 8.59617 2.127 -16.168203030381882 0 0 0
20 1 3 0 9.82419 2.836 -16.168203030381882 0 0 0
21 1 3 0 12.2802 0 -16.168203030381882 0 0 0
22 1 3 0 11.0522 0.709 -16.168203030381882 0 0 0
23 1 3 0 11.0522 2.127 -16.168203030381882 0 0 0
24 1 3 0 12.2802 2.836 -16.168203030381882 0 0 0
26 1 3 0 13.5083 0.709 -16.168203030381882 0 0 0
27 1 3 0 13.5083 2.127 -16.168203030381882 0 0 0
65 1 3 0 7.36814 4.254 -16.168203030381882 0 0 0
68 1 3 0 7.36814 7.09 -16.168203030381882 0 0 0
69 1 3 0 9.82419 4.254 -16.168203030381882 0 0 0
70 1 3 0 8.59617 4.963 -16.168203030381882 0 0 0
71 1 3 0 8.59617 6.381 -16.168203030381882 0 0 0
72 1 3 0 9.82419 7.09 -16.168203030381882 0 0 0
73 1 3 0 12.2802 4.254 -16.168203030381882 0 0 0
74 1 3 0 11.0522 4.963 -16.168203030381882 0 0 0
75 1 3 0 11.0522 6.381 -16.168203030381882 0 0 0
76 1 3 0 12.2802 7.09 -16.168203030381882 0 0 0
78 1 3 0 13.5083 4.963 -16.168203030381882 0 0 0
79 1 3 0 13.5083 6.381 -16.168203030381882 0 0 0
3244 805 2 0.5564 0.14530817454195863 4.71298572478083 -12.511853161362783 1 -3 0
1137 103 2 0.5564 4.527582392956901 5.982661730304787 -9.43120559391167 2 0 0
3351 841 2 0.5564 2.3321502330452564 5.822113476590682 -12.630568538790596 7 2 0
3384 852 2 0.5564 5.327674935869302 4.553129593881643 -7.868552493942437 3 -2 0
3789 987 2 0.5564 4.244010285399902 4.205096081116934 -13.022635501933236 1 0 0
1397 190 1 -1.1128 0.34254201070591905 0.8719399938041458 -12.732240342139892 -3 -1 0
3247 806 2 0.5564 3.6322987479711073 3.2972721129806897 -11.012701610233426 -6 -2 0
3243 805 2 0.5564 0.032237753435316374 6.198928495358453 -12.778469466191318 1 -3 0
3242 805 1 -1.1128 0.5899867844860365 5.546074589800856 -12.355468679428652 1 -3 0
1136 103 1 -1.1128 4.122105019727935 6.614394048844071 -10.025121679322904 2 0 0
2133 435 2 0.5564 9.586936813334233 1.0695175316958405 -6.784762310026796 -2 1 0
4125 1099 2 0.5564 0.9457116164749538 5.256220201146739 -10.766547185546315 0 4 0
3788 987 1 -1.1128 4.508523841646371 3.2878187595487436 -12.95286329722379 1 0 0
3246 806 2 0.5564 2.6713256977534274 3.9398578986145045 -10.035200477557588 -6 -2 0
2297 490 1 -1.1128 6.514995831651664 3.223188598458079 -1.3019042100068252 2 -1 0
2299 490 2 0.5564 7.214873489558655 3.808180680574954 -1.5920517188664522 2 -1 0
3352 841 2 0.5564 3.4470976115557193 6.140522623821416 -11.657216141507831 7 2 0
1014 62 2 0.5564 14.022106782822208 4.304018141186049 -9.631679229491597 3 0 0
2040 404 2 0.5564 1.2999786624389167 6.7348491674449065 -9.039226666882051 -1 1 0
3790 987 2 0.5564 5.457242990867533 3.301351521844962 -13.079291269280198 1 0 0
2417 530 1 -1.1128 -1.3548153418364548 6.490096797750382 -7.6178984145870805 3 -1 0
3350 841 1 -1.1128 3.285793532689709 5.8631958900959615 -12.5590518993219 7 2 0
1415 196 1 -1.1128 -0.6308499182987355 2.931043133289057 -9.67937554054851 -4 -1 0
1786 319 2 0.5564 8.178459900173225 0.06694869196343696 -12.433565611785127 4 2 0
2419 530 2 0.5564 -1.1678957589307215 7.193890759271225 -8.239160727299229 3 -1 0
2628 600 2 0.5564 3.5655392034520133 1.6755336328216202 -12.957385592859442 1 1 0
3023 732 1 -1.1128 4.7585697150456765 -0.18796456916923215 -9.916608572571581 -1 0 0
3245 806 1 -1.1128 3.3323849409058885 3.251106665350818 -10.104873580306633 -6 -2 0
3481 884 2 0.5564 2.3383073845117908 0.7370801480801449 -11.277000921802978 -4 0 0
3480 884 2 0.5564 2.5076998751230732 1.6910019258018387 -10.113714994337641 -4 0 0
3479 884 1 -1.1128 2.190602374255023 0.8152539413294375 -10.334502317712273 -4 0 0
1399 190 2 0.5564 0.08408329089721098 1.789096346904248 -12.641381113731462 -3 -1 0
4126 1099 2 0.5564 0.6997610237343178 4.306017555334959 -9.613933492709902 0 4 0
4124 1099 1 -1.1128 1.311376177641442 4.971512728484934 -9.929012967609554 0 4 0
4093 1088 2 0.5564 -1.5531651075464499 -0.6064201151504921 -4.404405688569899 0 1 0
1416 196 2 0.5564 -0.4494506357734387 2.097389224717274 -9.245384595484847 -4 -1 0
2039 404 1 -1.1128 1.4857739875966753 7.653995188981413 -8.847172842188872 -1 1 0
1334 169 1 -1.1128 0.24490610851959987 0.8238560263190824 -8.398660218063606 -3 -3 0
3971 1048 1 -1.1128 13.601798753956638 5.168136867455833 -11.311700851918442 -1 -1 0
1398 190 2 0.5564 1.2498747573801159 0.9071721648224907 -13.035127407629698 -3 -1 0
1836 336 2 0.5564 0.46476481250924084 -0.5434244328234947 -4.51562300708192 -4 0 0
1929 367 2 0.5564 1.4598467493932719 6.217052648956363 -6.344671562929479 2 -3 0
2627 600 1 -1.1128 3.022253609858254 0.8874530435101493 -12.956159596280658 1 1 0
1336 169 2 0.5564 0.6643584482195452 1.3285933825978458 -7.701857526790869 -3 -3 0
2048 407 1 -1.1128 12.497080020754977 0.856915742890317 -13.034105509648432 -1 0 0
2859 677 2 0.5564 13.237198485827621 7.034407458258674 -9.192700624150621 1 -2 0
3095 756 1 -1.1128 11.606526398610736 6.901953863145122 -0.15526050470901687 1 -2 0
3383 852 1 -1.1128 5.863063472379759 5.297166398430543 -8.144239012316731 3 -2 0
3385 852 2 0.5564 6.57836950683781 4.905497601404578 -8.645402648262753 3 -2 0
3438 870 2 0.5564 12.729472144403998 7.423973016661172 -13.04833668472305 0 1 0
1173 115 2 0.5564 13.79057853364593 4.920494486957711 -1.8706706439898928 1 4 0
3605 926 1 -1.1128 8.82183088656301 6.407879036312576 -9.655514866095738 3 2 0
4379 1184 1 -1.1128 8.17771803150136 6.350102665540637 -0.5536198963102122 0 4 0
1257 143 2 0.5564 -0.797733944467244 3.2931167491235875 -5.206573143348854 0 1 0
3024 732 2 0.5564 3.8125845862871635 -0.14850487873497203 -9.775940865141964 -1 0 0
2858 677 1 -1.1128 12.343867643603456 6.993765862632342 -8.85132009057789 1 -2 0
3367 846 2 0.5564 11.15163135525188 3.5975726806025627 -12.527817959905432 1 0 0
4233 1135 2 0.5564 8.05021134150994 3.2255407861772545 -13.593467947295862 4 0 0
4232 1135 1 -1.1128 7.2945219219324935 3.076997676812012 -13.025048889170128 4 0 0
4234 1135 2 0.5564 7.379953366911224 2.165507211861299 -12.74554028787523 4 0 0
1908 360 2 0.5564 7.55269935101601 3.8036385278275855 -11.291417504837025 -3 0 0
3773 982 1 -1.1128 8.796285319875306 1.251039673395017 -9.658936557266466 -1 -3 0
3636 936 2 0.5564 9.760126461110538 5.106240452565786 -11.804964378169666 0 1 0
3637 936 2 0.5564 8.92540527945471 5.66030300654193 -12.939930944760704 0 1 0
3635 936 1 -1.1128 9.52250204572314 4.9457772834246 -12.718210426663529 0 1 0
3366 846 2 0.5564 11.98691076308437 4.102040325897335 -13.685279075746008 1 0 0
3365 846 1 -1.1128 12.033450795706694 3.5593268894659276 -12.898177455445465 1 0 0
1909 360 2 0.5564 8.154275513554131 3.0058948044627556 -10.154048709535147 -3 0 0
1907 360 1 -1.1128 7.699162955126735 3.8258688685840356 -10.345748507365753 -3 0 0
4165 1112 2 0.5564 13.427823813191134 2.2948509402345563 -7.977178304007755 5 -1 0
3222 798 2 0.5564 12.697140075814433 0.5847183314064804 -9.368876566012606 1 1 0
2132 435 1 -1.1128 9.775762683236861 0.14423457925706976 -6.628467360662304 -2 1 0
4164 1112 2 0.5564 11.921212339495982 2.2989568130215474 -7.828859140097977 5 -1 0
4163 1112 1 -1.1128 12.699905992682769 1.7787300095484022 -7.630787785468457 5 -1 0
1784 319 1 -1.1128 7.462231770175611 0.5388316060368431 -12.00861722293555 4 2 0
3178 783 2 0.5564 10.804151561615276 0.2190999896036494 -12.69484215468148 1 -1 0
1150 107 2 0.5564 10.856659935180748 4.382274319775363 -9.396090758888192 1 -4 0
1149 107 2 0.5564 11.749188184985318 5.428878649847953 -10.028472767738759 1 -4 0
3669 947 2 0.5564 7.606994182182973 2.351389562211463 -7.048135053568103 3 1 0
3972 1048 2 0.5564 12.986823375199243 4.563788066858497 -11.727399773523288 -1 -1 0
1148 107 1 -1.1128 11.024793639346528 4.834190493177949 -10.222973296850714 1 -4 0
3176 783 1 -1.1128 9.922212444851283 -0.12046603474680338 -12.846864866043289 1 -1 0
1138 103 2 0.5564 4.786272149244506 7.293533328501205 -10.142956850862271 2 0 0
941 38 1 -1.1128 10.823226492402304 3.5478507701052013 -7.871371106487042 3 0 0
943 38 2 0.5564 9.996733469645031 3.1916561841890276 -7.545386204975055 3 0 0
1417 196 2 0.5564 -1.538307973566381 3.1294302309956943 -9.448303947240182 -4 -1 0
3973 1048 2 0.5564 13.480162804520855 5.994089670585571 -11.779935633472231 -1 -1 0
3775 982 2 0.5564 8.37747233695034 1.0488740264378078 -10.495573607220122 -1 -3 0
3097 756 2 0.5564 12.20188636679154 6.74545020643395 -0.8882590868982234 1 -2 0
3668 947 1 -1.1128 8.427594114546649 2.6605775247814814 -6.664402013453492 3 1 0
3514 895 2 0.5564 0.6496874577784294 4.010839923344264 -0.44438265804320964 -1 -2 0
3096 756 2 0.5564 11.167630449007282 7.7240320562628275 -0.373874373921787 1 -2 0
3402 858 2 0.5564 5.137885319829141 4.2539791079835805 -0.6106770251757173 1 -1 0
2860 677 2 0.5564 12.431761495343986 7.209036177122202 -7.9227900350558835 1 -2 0
3606 926 2 0.5564 9.742467791765225 6.308908775013645 -9.898143223446343 3 2 0
3856 1009 2 0.5564 6.140539330607567 6.767904135720627 -3.350973961192784 -3 0 0
3888 1020 2 0.5564 5.925048842586031 0.7111388310192173 -8.57021430831936 0 4 0
2271 481 2 0.5564 5.015779014369797 2.5038232416136514 -7.359790830110306 -2 -1 0
4381 1184 2 0.5564 7.650576695214023 7.023536837695531 -0.12368915764104291 0 4 0
2272 481 2 0.5564 4.012361683659998 3.2611508332544825 -8.203297559605161 -2 -1 0
1335 169 2 0.5564 0.9472183787792771 0.6504653774255389 -9.025500240221236 -3 -3 0
2739 637 2 0.5564 -1.4624382799573288 0.3770961649143426 -0.7190193221349148 4 1 0
1172 115 1 -1.1128 13.651187463872821 5.801471801300582 -1.5232788040914103 1 4 0
3774 982 2 0.5564 8.218838618602819 0.8629617966335559 -9.001529555664122 -1 -3 0
3437 870 1 -1.1128 13.253220001173265 7.666743657215522 -12.284803766131356 0 1 0
958 43 2 0.5564 -0.9922296571906644 6.539196763597869 -0.1068485253799797 -7 7 0
884 19 1 -1.1128 5.264456337119891 3.229658492897585 -4.172885934457046 1 0 0
3223 798 2 0.5564 12.267511848758144 0.8034433218163543 -10.803963234430773 1 1 0
2402 525 1 -1.1128 7.0138938152147166 6.747146687457998 -12.499731048886899 0 -3 0
1837 336 2 0.5564 0.20186061616741616 0.21348728727866545 -5.80009374059184 -4 0 0
1119 97 2 0.5564 8.305239816462938 6.93795000332738 -7.8343796503888425 -1 -2 0
4259 1144 1 -1.1128 -0.20254783205882326 6.9578141896303585 -3.242133065638407 3 -1 0
2404 525 2 0.5564 6.705327124106628 6.681272706087483 -11.596028172883825 0 -3 0
1844 339 1 -1.1128 1.780088670289122 1.6714188738692857 -6.274955761946293 -1 0 0
1552 241 2 0.5564 -0.1504542080071161 3.380040297447178 -2.8176246656192103 0 -6 0
1930 367 2 0.5564 -0.025821600272743862 6.174190743562837 -6.632510371268112 2 -3 0
4158 1110 2 0.5564 12.013518777699526 4.194403114851968 -5.11872894691347 0 -2 0
3945 1039 2 0.5564 5.229861591028691 -0.704015975841742 -5.616589684124369 -4 1 0
1816 329 2 0.5564 -1.53996403465934 4.601814760778636 -1.9950023831902 4 1 0
848 7 1 -1.1128 3.949547778931973 0.5969638920369331 -4.930061493238687 -2 0 0
2049 407 2 0.5564 13.44700878775772 0.7536997736788331 -12.977407215140603 -1 0 0
1928 367 1 -1.1128 0.6096316365223048 6.101675632896526 -5.920344488201833 2 -3 0
3124 765 2 0.5564 2.6693679580054193 7.2501302323666295 -0.7837411919507365 0 0 0
1286 153 1 -1.1128 13.43448371632339 3.760154514371702 -3.4000471745362426 3 0 0
849 7 2 0.5564 3.081500696882928 0.7608208900076614 -5.298678157451095 -2 0 0
1258 143 2 0.5564 0.3814782341815345 4.238177126298554 -5.115952012635544 0 1 0
2050 407 2 0.5564 12.360043535874613 1.8037159087425718 -13.06612529045986 -1 0 0
3513 895 2 0.5564 1.5790040670642955 5.171905996289643 -0.1611978569322621 -1 -2 0
1256 143 1 -1.1128 0.01597444368858964 3.4442524166833874 -4.72566902685982 0 1 0
1551 241 2 0.5564 -0.547878252965995 2.5713584278023904 -1.601078593492358 0 -6 0
2519 564 1 -1.1128 7.6274574169325975 4.8427761741037205 -5.135294349000564 -3 4 0
1846 339 2 0.5564 1.560857937397756 2.3367148615900204 -5.622612182109322 -1 0 0
1550 241 1 -1.1128 -0.3927644674026693 3.468731851208096 -1.8958570559997545 0 -6 0
2738 637 1 -1.1128 -1.0679896483642721 0.5751391145143032 -1.5683848930486355 4 1 0
850 7 2 0.5564 4.302596803004282 1.4684461550627317 -4.750873778465528 -2 0 0
885 19 2 0.5564 4.5356491799070335 3.812839314960509 -3.960820238376335 1 0 0
1845 339 2 0.5564 2.6799299638882763 1.8737525246905238 -6.531040220507266 -1 0 0
3401 858 1 -1.1128 4.685201894385962 5.018987517817121 -0.25560852670271883 1 -1 0
2520 564 2 0.5564 7.072753703907742 4.983144496141604 -4.367936894330971 -3 4 0
1490 221 1 -1.1128 -0.9852624184559402 3.312627933097612 -12.461041810451219 -5 2 0
3854 1009 1 -1.1128 6.465880110826783 5.975152023122155 -2.924442142572362 -3 0 0
3221 798 1 -1.1128 12.425506489667548 0.11532308831681247 -10.157619916506794 1 1 0
3122 765 1 -1.1128 2.603006691380452 6.67574265967872 -0.020913335341479745 0 0 0
1118 97 1 -1.1128 8.350325530928643 7.126159789465603 -6.896949108313903 -1 -2 0
886 19 2 0.5564 5.703784466332319 3.652997122530079 -4.910453849413405 1 0 0
3706 959 2 0.5564 6.863183965531375 0.2083472863828728 -1.033605728481688 -4 0 0
4260 1144 2 0.5564 -0.12002683174229078 6.891978874799215 -4.19349402979909 3 -1 0
3855 1009 2 0.5564 6.899546607124399 6.29006994625235 -2.131351874219368 -3 0 0
1491 221 2 0.5564 -0.7899506279482638 3.0495638800658234 -11.561660821129472 -5 2 0
2298 490 2 0.5564 6.1443883824224725 2.8722627717633458 -2.111677176051979 2 -1 0
2270 481 1 -1.1128 4.3873729625408435 3.224940156227769 -7.3233619700433135 -2 -1 0
3889 1020 2 0.5564 5.924278793089043 0.3694695617671801 -7.09537323686758 0 4 0
1486 219 2 0.5564 0.03417531726026449 -0.6632331734098168 -2.1225416132714465 3 0 0
4261 1144 2 0.5564 -0.9753519333165743 6.433774781933944 -3.031442245860679 3 -1 0
2403 525 2 0.5564 6.492487441479415 7.453846698556896 -12.880443762455736 0 -3 0
1526 233 1 -1.1128 12.536171522376696 7.318042754437358 -6.0780656539662425 1 0 0
2521 564 2 0.5564 7.537165910046885 5.646685001398514 -5.646973393927738 -3 4 0
4187 1120 1 -1.1128 9.461215482920775 1.2649404814857201 -3.2648057099169296 1 -1 0
4189 1120 2 0.5564 8.808226072005338 0.9051120172183713 -2.6645045736847894 1 -1 0
2200 457 2 0.5564 8.931737037900543 5.506056526159866 -4.107998151428866 4 2 0
2864 679 1 -1.1128 5.157335906501565 0.6664975675247073 -0.4161146776812775 3 1 0
2629 600 2 0.5564 3.648942712526405 0.1639489072149287 -12.950276316094529 1 1 0
942 38 2 0.5564 11.175683195828645 4.048385348907511 -7.135525294679377 3 0 0
3607 926 2 0.5564 8.464822532420484 5.520942556850334 -9.701607161785656 3 2 0
1288 153 2 0.5564 13.588036698061481 2.8197450998121454 -3.4910612066850484 3 0 0
1785 319 2 0.5564 6.701875648109961 -0.032853709310948845 -12.114761431479161 4 2 0
4157 1110 1 -1.1128 11.494092812754184 4.894559641676596 -5.513962541458364 0 -2 0
3718 963 2 0.5564 10.648897232148066 2.672725756715186 -2.5474603924025128 9 -1 0
3704 959 1 -1.1128 7.6393409051550485 -0.18565884591950343 -1.431819393226122 -4 0 0
3780 984 2 0.5564 10.433998736199518 3.0282712053984278 -0.421860395801396 0 1 0
1293 155 2 0.5564 12.473072486721271 -0.47525952108954694 -1.7044571900248267 -3 1 0
4000 1057 2 0.5564 11.318188573216524 0.7769009258932389 -3.234782679638996 -4 2 0
1528 233 2 0.5564 13.352024895072699 7.4780631863597815 -5.6037115698088105 1 0 0
2134 435 2 0.5564 10.014349379112005 -0.20068149887935469 -7.488899010854309 -2 1 0
3716 963 1 -1.1128 10.793928994155914 3.4007092877291893 -1.9431108634536558 9 -1 0
2865 679 2 0.5564 4.820784110827901 0.14372083744203457 -1.1439014331868234 3 1 0
2866 679 2 0.5564 4.4067426787570865 1.1845683563057396 -0.12551935857464988 3 1 0
3717 963 2 0.5564 10.388366026238138 4.153778545617073 -2.372807720860383 9 -1 0
3651 941 2 0.5564 12.990681120528249 0.4380130587841513 -6.35194142891143 -3 -1 0
4188 1120 2 0.5564 9.020114098074563 1.2870689733927267 -4.114024043162709 1 -1 0
1527 233 2 0.5564 12.37092335090963 6.382326613132589 -5.962459146008187 1 0 0
1287 153 2 0.5564 12.592388748279156 3.8233081619125704 -2.9493583047432903 3 0 0
3650 941 1 -1.1128 13.32363947591466 -0.0007847992303000806 -5.5691093752850955 -3 -1 0
3810 994 2 0.5564 4.205930812291502 -0.4344137630589614 -3.4035555894377616 4 2 0
3670 947 2 0.5564 8.204446888517621 3.5021504782717154 -6.266662882986722 3 1 0
2199 457 2 0.5564 9.624684621651264 6.62652443125722 -3.36216306723901 4 2 0
3999 1057 2 0.5564 12.77397350106608 0.671678300026805 -3.636672576683258 -4 2 0
3998 1057 1 -1.1128 12.1821853506986 0.5433900967066604 -2.8953486817388736 -4 2 0
3887 1020 1 -1.1128 6.186053900648178 1.0510908110359738 -7.714326219055214 0 4 0
3705 959 2 0.5564 8.17932198290161 -0.4556903497001438 -0.6890301958250821 -4 0 0
2198 457 1 -1.1128 9.695325452034918 5.693071331080908 -3.5619302633863295 4 2 0
4159 1110 2 0.5564 10.780853618902656 5.043881872963689 -4.8932938536648924 0 -2 0
2740 637 2 0.5564 -1.7244551734401163 0.2992238823859213 -2.2080394158019945 4 1 0
3123 765 2 0.5564 3.2317646746637063 5.974796627209845 -0.1928704733706344 0 0 0
4389 1187 2 0.5564 2.7985537764283106 7.466295356533933 -12.719872485406404 0 1 0
2418 530 2 0.5564 -1.7002928418160344 5.779042392481876 -8.157600503217427 3 -1 0
1835 336 1 -1.1128 0.07632433764584327 -0.6399041418341721 -5.38512914435781 -4 0 0
2644 605 2 0.5564 0.6790846530485097 4.669277179301471 2.0637038303159123 3 0 0
1291 154 2 0.5564 10.267962358222512 4.265596952998546 0.9392104400429189 1 -2 0
2642 605 1 -1.1128 1.055982505051622 4.567346438913018 2.9376558313681325 3 0 0
2643 605 2 0.5564 0.6064322733919817 5.222977565648837 3.470841833447134 3 0 0
1855 342 2 0.5564 13.658191272071692 0.8297168436151002 10.29247077266643 -1 3 0
2765 646 1 -1.1128 3.6630609620869987 2.9414019871220534 3.20421792704799 -2 1 0
2210 461 1 -1.1128 -0.8533163183531528 1.8249881792153217 6.097287785671706 2 2 0
2766 646 2 0.5564 4.057882748415621 2.5584330933184787 3.987596038849506 -2 1 0
2006 393 1 -1.1128 3.0225239877038987 6.310558947028385 3.628383111320246 -2 4 0
2193 455 2 0.5564 0.08965278992243006 3.8073753184941075 7.375766315115698 2 2 0
2008 393 2 0.5564 3.5070432367859974 5.783612168821112 4.263836855615803 -2 4 0
2007 393 2 0.5564 2.4150454410152027 5.69436596450929 3.2191018426723255 -2 4 0
2767 646 2 0.5564 2.7236195171256554 2.9478874272976476 3.387629341263331 -2 1 0
936 36 2 0.5564 8.27758440601654 0.7200621944581679 3.979456756814367 2 1 0
2192 455 1 -1.1128 -0.14182714948906672 4.561698254434131 7.917657702413936 2 2 0
1545 239 2 0.5564 13.033317388113094 5.029806197976308 8.451148253961327 -1 0 0
1827 333 2 0.5564 2.025198942757135 0.5135464585047359 0.7781525904210482 4 0 0
443 2 4 0 13.5083 2.127 20.3563331933874 0 0 0
4190 1121 1 -1.1128 4.237340774812209 5.243175646943444 5.981946525856947 -2 -2 0
1365 179 2 0.5564 12.382069777262306 4.248526397596616 16.1372162119544 0 3 0
1381 184 2 0.5564 2.6417058537454827 6.068609048151998 6.4735967889251675 3 2 0
1159 110 2 0.5564 10.445487687469457 -0.2026703433481919 6.80695251190378 0 0 0
2356 509 2 0.5564 0.072319678682362 2.126838905268572 4.681820912740939 1 1 0
4191 1121 2 0.5564 4.925610046584171 4.618985718770198 5.751937320223175 -2 -2 0
2997 723 2 0.5564 6.472705851867773 2.150404460665533 5.160283207937868 -2 2 0
2996 723 1 -1.1128 5.589020099198594 2.2566474986171143 5.512484958564897 -2 2 0
2998 723 2 0.5564 5.291774056486271 1.3638993628500415 5.688210271022827 -2 2 0
1153 108 2 0.5564 12.746660340084265 7.129479815834768 17.105126977714423 -2 2 0
3683 952 1 -1.1128 1.233537714168999 7.2888818126003745 14.431194273654135 0 3 0
3872 1015 1 -1.1128 6.5829928820728 7.406968892566305 1.8622382946897615 -1 1 0
3874 1015 2 0.5564 6.480335312046298 6.566863139587427 2.309358238129972 -1 1 0
4192 1121 2 0.5564 4.683693193347102 6.089043210334313 6.02083213281575 -2 -2 0
1384 185 2 0.5564 11.685532944215701 -0.15992140406814345 3.5495970965761297 1 0 0
1854 342 2 0.5564 13.501414088768929 2.334332684973821 10.351182292245603 -1 3 0
2023 398 2 0.5564 3.6235131055761722 2.690119862559533 0.9503155972830202 3 2 0
1290 154 2 0.5564 10.747448208527214 5.693851751833028 0.7906035276908995 1 -2 0
3512 895 1 -1.1128 1.1199179522565066 4.448345774645826 0.26533963973128066 -1 -2 0
4054 1075 2 0.5564 8.523289231038733 6.952048035830337 5.217216310297771 -3 -3 0
1151 108 1 -1.1128 13.679980008153255 7.336978560103145 17.150908115435293 -2 2 0
2748 640 2 0.5564 14.103239086029893 0.8382305480298894 1.341500234847116 -2 4 0
2211 461 2 0.5564 -1.4562078642746599 1.4308567688667035 5.466880099350065 2 2 0
2845 672 2 0.5564 -1.4739681474278854 0.050745125868780994 10.27427617579391 1 2 0
1379 184 1 -1.1128 1.8519634677732226 6.519421283410684 6.772443750110271 3 2 0
2354 509 1 -1.1128 0.7384027066222426 1.9553566193987089 4.01611579998468 1 1 0
2640 604 2 0.5564 0.30176490265652556 7.098785977900639 4.159773445265103 2 4 0
2639 604 1 -1.1128 0.06723415511514981 6.406614113222623 4.777936582451088 2 4 0
4424 1199 1 -1.1128 4.205769123060983 0.010543246514409386 6.372666687024108 1 -2 0
4237 1136 2 0.5564 7.788301675629977 2.1857220576741634 17.227135386293664 1 4 0
2641 604 2 0.5564 0.6396716507211612 6.553284610353335 5.530957368586217 2 4 0
1383 185 2 0.5564 13.106129567440428 -0.5644723279832026 3.8814691283256844 1 0 0
4377 1183 2 0.5564 8.450688528348225 -0.6784116234601155 16.907927176059705 1 0 0
2355 509 2 0.5564 0.7081989276683713 2.7217319880799815 3.4434123312564004 1 1 0
1975 382 2 0.5564 13.877377128046922 3.5230729487121693 14.751594373301632 -7 3 0
494 2 4 0 13.5083 4.963 20.3563331933874 0 0 0
2212 461 2 0.5564 -0.472218472696746 1.0804270031479146 6.562715658111229 2 2 0
4053 1075 2 0.5564 9.838484076763375 7.350911434161986 4.58234211166078 -3 -3 0
2001 391 2 0.5564 10.302801515220125 6.333120579257909 16.77576926594558 -1 -2 0
2021 398 1 -1.1128 2.938188891960878 2.3885681405742165 0.35396733407692604 3 2 0
438 2 4 0 11.0522 0.709 20.3563331933874 0 0 0
487 2 4 0 8.59617 6.381 20.3563331933874 0 0 0
4341 1171 2 0.5564 1.8768838212605434 0.35169601595519595 4.439428716170197 1 -2 0
4342 1171 2 0.5564 3.1072970582913713 -0.3842548781239246 4.925594138741412 1 -2 0
4396 1189 2 0.5564 -0.059868366060858894 7.526598900757009 1.3902528773616696 5 1 0
3296 823 1 -1.1128 13.753872008795312 6.998434810802681 6.451106293867427 3 0 0
965 46 1 -1.1128 6.714154095170874 0.5679039222612614 13.97035096621659 2 2 0
3832 1001 2 0.5564 13.274002525587028 5.355807427903913 1.0063868568143206 0 -2 0
3901 1024 2 0.5564 8.211623701269309 4.820651412432719 5.669518873473445 3 1 0
432 2 4 0 7.36814 2.836 20.3563331933874 0 0 0
3899 1024 1 -1.1128 7.625834620508366 5.5102407344677635 5.981851394956779 3 1 0
3900 1024 2 0.5564 7.054888870892378 5.072415185739116 6.61316808610494 3 1 0
2406 526 2 0.5564 8.468766647643285 0.29776963130749934 8.238211306029568 4 -2 0
1924 365 2 0.5564 6.570084626053986 4.344942535596532 2.536259405048719 -4 4 0
996 56 2 0.5564 10.511511370636393 4.018628733009982 4.021784325654807 3 -2 0
3781 984 2 0.5564 10.933067155788077 1.8587033591805924 0.39968446756786985 0 1 0
995 56 1 -1.1128 9.707166496363088 3.8466100263061977 4.511346085107652 3 -2 0
997 56 2 0.5564 9.658418580039605 2.8921655334109633 4.565115341972763 3 -2 0
1994 389 1 -1.1128 7.738641645637217 2.611447058668378 1.3565338098256652 1 -2 0
1639 270 2 0.5564 12.05188715373416 2.7007241668750672 2.857922820724974 -3 3 0
1637 270 1 -1.1128 12.338308031622654 3.536006830307322 3.227379755214292 -3 3 0
1638 270 2 0.5564 13.006225080958785 3.2976320778617456 3.870265558452676 -3 3 0
490 2 4 0 11.0522 4.963 20.3563331933874 0 0 0
1996 389 2 0.5564 8.655991649199775 2.4516296775430533 1.134806604818318 1 -2 0
1995 389 2 0.5564 7.251536169934656 2.3243914320808114 0.5841613735714031 1 -2 0
3297 823 2 0.5564 13.06299840708236 6.531852304203253 6.921453713254451 3 0 0
2118 430 2 0.5564 10.720040744046335 6.304368400882531 2.626353647484064 1 1 0
2117 430 1 -1.1128 10.996949192731197 6.840119349669058 3.3696753273597104 1 1 0
2119 430 2 0.5564 11.726996741274926 6.356071495410721 3.7556290337190825 1 1 0
4068 1080 2 0.5564 11.907366536989246 1.3046264891315273 7.037431211136968 -2 5 0
1922 365 1 -1.1128 5.716885212776549 4.771509336914907 2.61578066318806 -4 4 0
1923 365 2 0.5564 5.084553647776585 4.054683313360231 2.5652771544069983 -4 4 0
3779 984 1 -1.1128 10.272481195425497 2.551381117855046 0.3922162752371196 0 1 0
3831 1001 2 0.5564 13.190285253257398 4.499013989512091 2.2516940628602327 0 -2 0
1507 226 2 0.5564 -1.1056042838852698 0.5457794471713162 17.702772411697232 2 -2 0
3403 858 2 0.5564 5.095764237695425 5.166785212297176 0.5963462423824479 1 -1 0
3837 1003 2 0.5564 13.203117414866718 2.573369560926653 5.959654107375972 2 1 0
481 2 4 0 7.36814 4.254 20.3563331933874 0 0 0
4246 1139 2 0.5564 -1.3928414917569423 5.371974797670146 5.154664147344887 -1 3 0
1945 372 2 0.5564 10.41423460852068 4.1736722243775235 15.73016644576025 -3 1 0
2747 640 1 -1.1128 13.318730529611123 1.0793264244144034 0.8489029938482439 -2 4 0
437 2 4 0 12.2802 0 20.3563331933874 0 0 0
1157 110 1 -1.1128 11.376506676095337 -0.3772524067809148 6.669264305634828 0 0 0
1382 185 1 -1.1128 12.416966928364726 0.05172596351349807 4.129634457885277 1 0 0
1364 179 1 -1.1128 13.332765547023287 4.326836986700767 16.05799400828564 0 3 0
935 36 1 -1.1128 8.023104644317089 1.639522307000022 4.057336286573572 2 1 0
1158 110 2 0.5564 11.490142687250358 -0.338102526177135 5.719638719661837 0 0 0
3427 866 2 0.5564 4.045703074240747 0.1455040075660355 16.2000613427867 -2 0 0
3733 968 2 0.5564 6.420340903463902 6.934494330044133 5.743239688461102 -4 4 0
937 36 2 0.5564 7.969096891521687 1.9509401065812293 3.1538232807331763 2 1 0
2532 568 2 0.5564 6.0005449987440365 7.0513861318708315 17.368596209836753 1 3 0
2906 693 1 -1.1128 13.718785866949654 5.021556834697815 10.361555632305528 3 2 0
1944 372 2 0.5564 10.247987582193792 3.0386099872720913 16.718037891086066 -3 1 0
1380 184 2 0.5564 1.3564383759210388 5.849057413430277 7.242869966685572 3 2 0
3836 1003 1 -1.1128 13.946223086403283 2.8624200423217694 5.4300515862780045 2 1 0
4324 1165 2 0.5564 10.411147383558466 0.8739546526015752 12.230727672124598 5 -3 0
1828 333 2 0.5564 2.1698436901057594 -0.6639201212638057 1.7186548221910034 4 0 0
2533 568 2 0.5564 4.520984630141857 7.3486368717669 17.248434986675754 1 3 0
2099 424 1 -1.1128 0.8583022045955069 0.2894155536278997 7.992494633970393 2 0 0
2251 474 2 0.5564 3.2321300880897197 2.8003963215383774 8.74211488555401 -2 3 0
1011 61 2 0.5564 -0.007085504665927535 4.560318791338135 13.692471219457676 2 -4 0
2101 424 2 0.5564 0.021192362989896366 0.4336001252548679 8.433730537495919 2 0 0
2249 474 1 -1.1128 2.94970605483259 1.8861010466383454 8.765218109921989 -2 3 0
3697 956 2 0.5564 -0.06120638044204713 4.416766756342314 9.731015234875334 1 4 0
3695 956 1 -1.1128 -0.1786005040951543 4.557550135320018 10.670500920909507 1 4 0
2250 474 2 0.5564 3.231572012611 1.5694723613638117 9.623433514013266 -2 3 0
1831 334 2 0.5564 4.063247741761194 5.395923582193459 9.851543941793715 -1 2 0
2100 424 2 0.5564 1.417753038688623 1.0025361088288913 8.300234457577819 2 0 0
3696 956 2 0.5564 0.12333819007240503 5.4537525392112 10.818442604149855 1 4 0
3994 1055 2 0.5564 1.0002335573168262 2.4894673187258007 11.365649494133322 0 -1 0
3992 1055 1 -1.1128 0.7715466113694971 1.5931757161367965 11.611809601425888 0 -1 0
3993 1055 2 0.5564 0.2119784611012097 1.2839951100148237 10.899403248481505 0 -1 0
2609 594 1 -1.1128 1.3344887215821182 7.171707662183262 11.126084041870355 -2 3 0
4161 1111 2 0.5564 3.5383414211714643 0.1788257091294386 11.727488568473602 -3 4 0
4162 1111 2 0.5564 3.2923470007661924 1.6395932279383092 12.039800151246858 -3 4 0
2843 672 1 -1.1128 -1.0562474587944384 0.8403223778996718 9.930314643299987 1 2 0
2258 477 1 -1.1128 4.219442529211949 7.092448911144134 12.94813516201317 3 -2 0
1012 61 2 0.5564 1.1194147488307171 5.565006817237383 13.576309094160484 2 -4 0
2610 594 2 0.5564 2.1986691406250483 6.831052760895116 11.3571213126182 -2 3 0
1010 61 1 -1.1128 0.9366252936417548 4.625898425899361 13.546386352901521 2 -4 0