LAMMPS data file via write_data, version 2 Aug 2023, timestep = 6000000, units = real

3232 atoms
4 atom types
1600 bonds
1 bond types
800 angles
1 angle types
0 impropers
1 improper types

-1.8420299999999998 30.08661 xlo xhi
-0.709 33.323 ylo yhi
-150 150 zlo zhi

Masses

1 15.9994
2 1.00794
3 12.0107
4 12.0107

Pair Coeffs # lj/cut/tip4p/long

1 0.1852 3.1589
2 0 0
3 0.0859 3.3997
4 0.0859 3.3997

Bond Coeffs # harmonic

1 5000 0.9572

Angle Coeffs # harmonic

1 500 104.52

Atoms # full

1 1 3 0 0 0 -13.028967241974486 0 0 0
2 1 3 0 -1.22802 0.709 -13.028967241974486 0 0 0
3 1 3 0 -1.22802 2.127 -13.028967241974486 0 0 0
4 1 3 0 0 2.836 -13.028967241974486 0 0 0
5 1 3 0 2.45605 0 -13.028967241974486 0 0 0
6 1 3 0 1.22802 0.709 -13.028967241974486 0 0 0
7 1 3 0 1.22802 2.127 -13.028967241974486 0 0 0
8 1 3 0 2.45605 2.836 -13.028967241974486 0 0 0
9 1 3 0 4.9121 0 -13.028967241974486 0 0 0
10 1 3 0 3.68407 0.709 -13.028967241974486 0 0 0
11 1 3 0 3.68407 2.127 -13.028967241974486 0 0 0
12 1 3 0 4.9121 2.836 -13.028967241974486 0 0 0
14 1 3 0 6.14012 0.709 -13.028967241974486 0 0 0
15 1 3 0 6.14012 2.127 -13.028967241974486 0 0 0
53 1 3 0 0 4.254 -13.028967241974486 0 0 0
54 1 3 0 -1.22802 4.963 -13.028967241974486 0 0 0
55 1 3 0 -1.22802 6.381 -13.028967241974486 0 0 0
56 1 3 0 0 7.09 -13.028967241974486 0 0 0
57 1 3 0 2.45605 4.254 -13.028967241974486 0 0 0
58 1 3 0 1.22802 4.963 -13.028967241974486 0 0 0
59 1 3 0 1.22802 6.381 -13.028967241974486 0 0 0
60 1 3 0 2.45605 7.09 -13.028967241974486 0 0 0
61 1 3 0 4.9121 4.254 -13.028967241974486 0 0 0
62 1 3 0 3.68407 4.963 -13.028967241974486 0 0 0
63 1 3 0 3.68407 6.381 -13.028967241974486 0 0 0
64 1 3 0 4.9121 7.09 -13.028967241974486 0 0 0
66 1 3 0 6.14012 4.963 -13.028967241974486 0 0 0
67 1 3 0 6.14012 6.381 -13.028967241974486 0 0 0
1664 279 1 -1.1128 3.3662982465922986 1.5340345299282856 -8.80864668978868 4 4 0
1665 279 2 0.5564 3.831314778109735 1.3035980546274049 -8.004351262057089 4 4 0
1666 279 2 0.5564 3.400784021762594 0.7397811400119912 -9.341755276077002 4 4 0
1420 197 2 0.5564 0.6598678783932336 6.601274158079808 -9.23404659875431 -3 0 0
1418 197 1 -1.1128 0.9759064531992422 6.05609625647732 -9.954555859645362 -3 0 0
1419 197 2 0.5564 1.41395956265018 5.321246977944187 -9.525206678627905 -3 0 0
1320 164 2 0.5564 2.887307247359285 3.2354016125352585 -8.785618975592588 3 0 0
1319 164 1 -1.1128 2.3712584171362754 4.030216702721367 -8.650727383181653 3 0 0
2358 510 2 0.5564 8.662240630778816 0.0298222944883461 -4.518848317697264 1 -1 0
1582 251 2 0.5564 0.9860768627281387 3.0511748966564896 -8.483972047559584 0 -1 0
1622 265 1 -1.1128 9.602489383013399 5.252641220893899 -9.43435341810045 3 1 0
1624 265 2 0.5564 8.932182669246446 4.909592273937548 -10.025317408431569 3 1 0
1747 306 2 0.5564 7.249585755010353 6.455370641266179 -9.002325990685451 -2 1 0
1321 164 2 0.5564 2.694872374345701 4.389119408601341 -7.824473786466923 3 0 0
1953 375 2 0.5564 6.010326091505378 4.9546818521843505 -10.434106406290907 -1 -2 0
1954 375 2 0.5564 7.236408864088269 4.346587199452554 -9.786928474683325 -1 -2 0
1952 375 1 -1.1128 6.921513816257032 5.144882119058846 -10.210960781429112 -1 -2 0
1616 263 1 -1.1128 7.726634094072411 2.849157931310105 -8.864251528824802 0 -2 0
1745 306 1 -1.1128 7.18566208366982 7.243384385708182 -8.462713418713081 -2 1 0
1618 263 2 0.5564 8.634206451691657 2.731533710667773 -8.583699037515672 0 -2 0
2633 602 1 -1.1128 -1.3483744017511345 2.687773910849512 -0.1778305561703432 1 -3 0
1238 137 1 -1.1128 7.592505001880484 0.19429961775714338 -2.814095866906106 -4 4 0
1617 263 2 0.5564 7.527085738920195 2.060252882963214 -9.368278083624531 0 -2 0
1623 265 2 0.5564 9.120896798314456 5.507638398681982 -8.647411625022217 3 1 0
2635 602 2 0.5564 -1.293464558494446 2.3527825369636552 -1.0728192984092308 1 -3 0
1803 325 2 0.5564 -0.5883193002656323 0.7916748261161182 -2.787281881475792 1 0 0
3093 755 2 0.5564 10.527890145726007 6.300856050867605 -2.069028282199817 1 2 0
13 1 3 0 7.36814 0 -13.028967241974486 0 0 0
16 1 3 0 7.36814 2.836 -13.028967241974486 0 0 0
17 1 3 0 9.82419 0 -13.028967241974486 0 0 0
18 1 3 0 8.59617 0.709 -13.028967241974486 0 0 0
19 1 3 0 8.59617 2.127 -13.028967241974486 0 0 0
20 1 3 0 9.82419 2.836 -13.028967241974486 0 0 0
21 1 3 0 12.2802 0 -13.028967241974486 0 0 0
22 1 3 0 11.0522 0.709 -13.028967241974486 0 0 0
23 1 3 0 11.0522 2.127 -13.028967241974486 0 0 0
24 1 3 0 12.2802 2.836 -13.028967241974486 0 0 0
26 1 3 0 13.5083 0.709 -13.028967241974486 0 0 0
27 1 3 0 13.5083 2.127 -13.028967241974486 0 0 0
65 1 3 0 7.36814 4.254 -13.028967241974486 0 0 0
68 1 3 0 7.36814 7.09 -13.028967241974486 0 0 0
69 1 3 0 9.82419 4.254 -13.028967241974486 0 0 0
70 1 3 0 8.59617 4.963 -13.028967241974486 0 0 0
71 1 3 0 8.59617 6.381 -13.028967241974486 0 0 0
72 1 3 0 9.82419 7.09 -13.028967241974486 0 0 0
73 1 3 0 12.2802 4.254 -13.028967241974486 0 0 0
74 1 3 0 11.0522 4.963 -13.028967241974486 0 0 0
75 1 3 0 11.0522 6.381 -13.028967241974486 0 0 0
76 1 3 0 12.2802 7.09 -13.028967241974486 0 0 0
78 1 3 0 13.5083 4.963 -13.028967241974486 0 0 0
79 1 3 0 13.5083 6.381 -13.028967241974486 0 0 0
911 28 1 -1.1128 -1.263171686402903 1.1081088555266836 -9.927947035118745 5 5 0
2966 713 1 -1.1128 11.943142745375718 2.1870869701953857 -9.700850637862933 -3 -1 0
2968 713 2 0.5564 12.103725682710147 3.0862618861473576 -9.414616203477808 -3 -1 0
2967 713 2 0.5564 12.811449088777575 1.785160549706681 -9.727921628876958 -3 -1 0
880 17 2 0.5564 -1.0285223565946675 3.8858079567625743 -9.262521900067844 2 3 0
2650 607 2 0.5564 7.787885734017419 -0.6823357048901868 -0.2728766747780821 2 3 0
991 54 2 0.5564 11.740085164089532 5.176120946216248 -8.927572632030143 -2 4 0
990 54 2 0.5564 13.251417126689775 5.239187505286101 -8.865942533484484 -2 4 0
3178 783 2 0.5564 13.93463028375272 7.011392696893192 -1.772235862299743 0 0 0
1825 332 2 0.5564 11.887800610707663 -0.034972343373031706 -6.0453109855124705 1 2 0
1111 94 2 0.5564 10.30112242821065 5.915136084448171 -6.540152908995851 2 1 0
1984 385 2 0.5564 0.5043325409737544 3.1337927535248338 -0.5441390654178029 4 2 0
989 54 1 -1.1128 12.509751040483806 4.662606903022725 -8.682314274876013 -2 4 0
912 28 2 0.5564 -1.2624965772480463 1.5112795655783877 -10.796097485874638 5 5 0
2938 703 2 0.5564 -1.7818981235935294 5.542693675232084 -4.862219710778925 0 -1 0
3042 738 2 0.5564 10.044001861785569 7.546182870379071 -3.674918166156586 6 -1 0
1982 385 1 -1.1128 1.3916969908659622 3.4548302596829874 -0.7046110271830357 4 2 0
1211 128 1 -1.1128 0.7741969935802605 -0.5013758022436218 -2.9214084670429443 4 2 0
3190 787 2 0.5564 3.681792942259485 7.340468461717041 -4.6758857992837735 3 0 0
952 41 2 0.5564 9.058288997576973 3.234376925043998 -3.3323895910883126 0 2 0
2781 651 2 0.5564 0.09363002527421814 3.4342300044217637 -5.0337027513932115 0 0 0
2335 502 2 0.5564 1.3643813754483312 6.572648778558038 -5.663646529926304 0 -2 0
2359 510 2 0.5564 9.980387065223402 -0.0859278575505752 -5.254370170565274 1 -1 0
2780 651 1 -1.1128 -0.5718210051206833 3.9507091015993585 -5.488297640888405 0 0 0
1479 217 2 0.5564 3.873683452700578 5.841729285950514 -1.5328745023256616 0 3 0
1983 385 2 0.5564 1.347414138243789 3.8598067222708354 -1.570790982643288 4 2 0
1019 64 1 -1.1128 1.4673810595886754 4.504646658108286 -3.2262893162473745 -3 2 0
986 53 1 -1.1128 2.1892249454177706 2.3809788551171103 -5.249478546380502 0 -3 0
987 53 2 0.5564 2.3602973314468305 2.3002579982631675 -4.3111550271109 0 -3 0
879 17 2 0.5564 -0.881263809350086 5.012293297185151 -10.263143635175556 2 3 0
1581 251 2 0.5564 -0.1048512618314799 3.032109202627583 -7.434492300376091 0 -1 0
1353 175 2 0.5564 2.0830852601149323 0.9725535508985326 -2.4754443777746142 1 -2 0
1783 318 2 0.5564 1.9757028514197696 0.6744664678876202 -7.770622252568051 -1 4 0
1784 319 1 -1.1128 6.459119228909747 0.30121281311791526 -9.469597461333876 1 4 0
1681 284 2 0.5564 3.6410438244425913 3.730539331579073 -5.924312107943073 4 -2 0
1203 125 2 0.5564 5.7497720159656325 0.29201617464121116 -7.286223845486173 2 1 0
1247 140 1 -1.1128 5.398334244985682 1.8561265737592538 -3.0212355650774603 -2 1 0
1249 140 2 0.5564 4.543009610683452 1.7590474043181392 -2.6026301291260814 -2 1 0
2006 393 1 -1.1128 6.412186164701307 3.044834700483968 -6.158364203871076 1 0 0
1248 140 2 0.5564 5.5563088497103506 2.800175847416168 -3.028277671275173 -2 1 0
1781 318 1 -1.1128 1.8005361631124635 0.0295768661631692 -7.085298783929517 -1 4 0
1785 319 2 0.5564 5.645926514733749 -0.17313672894748203 -9.64263680663564 1 4 0
1680 284 2 0.5564 5.002421599897904 4.0711525632328165 -6.492229867445403 4 -2 0
2007 393 2 0.5564 6.96409925642704 2.983314855453805 -5.378723016091777 1 0 0
3110 761 1 -1.1128 -0.8986903275767273 6.987271165653448 -2.1007102618380014 0 -1 0
2008 393 2 0.5564 7.0242760628622944 2.980018425515761 -6.891424420892466 1 0 0
1202 125 1 -1.1128 4.978487120929016 0.5713227454395091 -6.792928365761265 2 1 0
2333 502 1 -1.1128 0.4493186876117736 6.3079831779835525 -5.757713249587572 0 -2 0
1021 64 2 0.5564 2.3315425710354356 4.887813133761544 -3.075819063684634 -3 2 0
1679 284 1 -1.1128 4.12494387478894 4.4308033293511695 -6.362154375702058 4 -2 0
1330 167 2 0.5564 6.6125711905132425 7.014329597581213 -5.244215626160233 0 3 0
1478 217 1 -1.1128 3.7239126143436336 5.685073645510419 -2.465216966921186 0 3 0
3177 783 2 0.5564 12.441735006382409 7.260992050219904 -1.7428988662852258 0 0 0
1354 175 2 0.5564 2.2889068922424833 2.257911945221734 -1.702535010917269 1 -2 0
1352 175 1 -1.1128 2.7508719645576476 1.6182560209196433 -2.2444427971332255 1 -2 0
2782 651 2 0.5564 -0.1708358248598316 4.812465918687834 -5.6015227503157305 0 0 0
1020 64 2 0.5564 0.8923293258349783 5.256969914742772 -3.3661369433759454 -3 2 0
1204 125 2 0.5564 5.219429041757459 1.425390964210192 -6.434112295670142 2 1 0
3225 799 2 0.5564 13.405355435469872 4.803668188163725 -0.27901991232105167 0 -4 0
3189 787 2 0.5564 3.380641986808041 6.109368124985054 -5.503895263949123 3 0 0
1782 318 2 0.5564 0.9368675722329264 -0.32189121431236944 -7.301590954883462 -1 4 0
2119 430 2 0.5564 -0.7694581270949453 -0.3352401507293926 -8.808841587487338 -1 0 0
1480 217 2 0.5564 4.575891108365444 5.407466350130233 -2.8018179883851144 0 3 0
2801 658 1 -1.1128 11.521342906543962 2.3469029606014953 -2.515752514666435 -1 -4 0
988 53 2 0.5564 2.343906010040853 1.5030134899839667 -5.598023953872818 0 -3 0
2334 502 2 0.5564 0.06905702269613424 6.962856968557686 -6.343183556093466 0 -2 0
1110 94 2 0.5564 9.69080432310787 7.293238930570216 -6.682428643143004 2 1 0
1802 325 1 -1.1128 -1.254951297611336 1.4784148057461532 -2.802228411343083 1 0 0
2449 540 2 0.5564 8.814697119641206 3.101622419167006 -0.7960952217656886 -1 1 0
1786 319 2 0.5564 7.141830368226208 -0.24051694652813824 -9.865408784782906 1 4 0
1580 251 1 -1.1128 0.09530718326981416 2.73962644764578 -8.32366182483322 0 -1 0
1239 137 2 0.5564 7.478640186283597 0.03741964933744773 -1.8767293343336848 -4 4 0
3025 732 2 0.5564 10.709385347452196 -0.5062594588268297 -8.741914840665725 0 -4 0
3041 738 1 -1.1128 9.711682846565402 6.655773985267994 -3.5610374565316674 6 -1 0
3043 738 2 0.5564 9.70881601961157 6.285939498261769 -4.443900267030766 6 -1 0
2802 658 2 0.5564 11.391556964546911 1.3992782775345245 -2.5531319457369026 -1 -4 0
1504 225 2 0.5564 13.842319823016448 5.40295123959544 -4.919603033390935 -2 -2 0
1109 94 1 -1.1128 9.64997998896635 6.4985408136813065 -6.150429355082852 2 1 0
2051 408 1 -1.1128 12.995157155244328 3.6219333113788443 -4.815784927741589 -3 1 0
2534 569 1 -1.1128 6.213325675501546 4.60854020287535 -3.591342026589914 4 -2 0
1232 135 1 -1.1128 14.104529124052352 1.559409504731029 -1.8561309018795658 2 0 0
2053 408 2 0.5564 12.556760301538311 3.1816717730247466 -4.087629179279357 -3 1 0
2535 569 2 0.5564 6.2500510145982116 4.96988085947112 -4.476958677726151 4 -2 0
1406 193 1 -1.1128 12.415334301182435 1.5287172156385145 -6.903144909601854 0 3 0
3111 761 2 0.5564 -0.7723170386905963 6.518785854931995 -1.275611954145769 0 -1 0
913 28 2 0.5564 -0.9300162995271047 1.7910968484190968 -9.345905046082999 5 5 0
2052 408 2 0.5564 13.612459152111171 2.972391277103048 -5.152335129723998 -3 1 0
1328 167 1 -1.1128 6.813249855952939 6.168557727043662 -5.645003466193634 0 3 0
1746 306 2 0.5564 6.662477680132109 6.975195602934585 -7.707342453622281 -2 1 0
2536 569 2 0.5564 7.115363666794145 4.352458093594873 -3.3990349998090243 4 -2 0
1329 167 2 0.5564 7.769585188613396 6.134289445048638 -5.666999112534996 0 3 0
3094 755 2 0.5564 10.177598750744146 6.72783120646124 -0.6594595090738654 1 2 0
1408 193 2 0.5564 12.304476020382738 1.645727033531121 -7.846677368184637 0 3 0
2803 658 2 0.5564 10.805138874853776 2.6657410852258647 -1.9665437176025502 -1 -4 0
950 41 1 -1.1128 8.567570757080876 3.133523243874929 -4.148023984878327 0 2 0
2648 607 1 -1.1128 6.9917476655835005 -0.1606660353518128 -0.17158709308873538 2 3 0
2448 540 2 0.5564 9.528211168674147 4.385131072128607 -1.1640664299397723 -1 1 0
3092 755 1 -1.1128 10.875324650689658 6.326496727888573 -1.1774765164591965 1 2 0
878 17 1 -1.1128 -1.5253907579244337 4.4102601642706025 -9.890461266156343 2 3 0
2357 510 1 -1.1128 9.097331216557185 0.2744126889599318 -5.335614355261509 1 -1 0
1407 193 2 0.5564 12.477289044558706 2.418821641348136 -6.5565780523480175 0 3 0
951 41 2 0.5564 8.874382291571566 2.3028899897145676 -4.511545209348465 0 2 0
2447 540 1 -1.1128 9.314020457276168 3.514947011984639 -1.500421697360818 -1 1 0
3205 792 2 0.5564 11.053586300886273 7.668771975800361 -9.754308401009755 0 3 0
2464 545 2 0.5564 13.39148456603665 7.53790907236348 -5.00726249884411 4 0 0
3188 787 1 -1.1128 3.04628148038337 6.981669077919557 -5.2952587443688 3 0 0
3176 783 1 -1.1128 13.255784670814199 7.584185873848373 -2.1290397709102304 0 0 0
1233 135 2 0.5564 13.278724326667824 2.0193374695322475 -2.006966531724083 2 0 0
2957 710 1 -1.1128 11.250761395989846 -0.5616222912674657 -2.8778599968326697 -2 -2 0
1240 137 2 0.5564 6.943555627196317 0.8653667552104133 -3.025678637331104 -4 4 0
2454 542 2 0.5564 2.3355676437669026 7.74088459630818 -10.330434180596775 3 -1 0
2959 710 2 0.5564 10.34020491892881 -0.7034381921761579 -2.6190016169363375 -2 -2 0
2540 571 1 -1.1128 2.7362427247148857 3.7949700893763905 1.6598353346863495 -1 0 0
2542 571 2 0.5564 2.5934694530534768 3.674903340565697 0.720988009976235 -1 0 0
2541 571 2 0.5564 3.623916819788307 4.1472330085192155 1.7244727044864991 -1 0 0
1372 181 2 0.5564 -0.045907431984257674 4.301273232086939 3.223181749016835 4 -2 0
3226 799 2 0.5564 13.232666337785453 5.006912735786508 1.21120492731557 0 -4 0
1794 322 2 0.5564 9.956951044038355 5.758468397831684 6.605351959391064 2 2 0
2050 407 2 0.5564 2.787870533016434 0.5574340054177814 4.583734015005644 -2 0 0
485 2 4 0 9.82419 4.254 12.736959109302104 0 0 0
2048 407 1 -1.1128 3.0592408539249494 0.8849692973582657 5.441236796440722 -2 0 0
1796 323 1 -1.1128 -0.9487212379102838 5.6951351769331415 0.2890560681317424 0 0 0
1516 229 2 0.5564 12.999027180794782 6.640125887270491 9.77461541796325 1 -1 0
1861 344 2 0.5564 -1.0100193355589064 6.574486863715442 4.29364980063532 0 -1 0
1371 181 2 0.5564 1.0539245732161597 3.5124263012125643 2.544958985777146 4 -2 0
2028 400 2 0.5564 5.2453947628597675 -0.36462648887407395 0.5275670595806726 1 -1 0
2834 669 1 -1.1128 3.9210008271402863 5.6641766953310215 4.741035406337687 3 -2 0
3145 772 2 0.5564 13.676473260241776 2.9377061171053636 8.726464092807829 3 3 0
1797 323 2 0.5564 -1.7107455439628423 5.931012356178154 0.8181268454218155 0 0 0
2836 669 2 0.5564 3.575075659210005 6.525733660710409 4.508033764841299 3 -2 0
940 37 2 0.5564 3.9710150875973693 3.83044358397275 6.405659895910834 1 -1 0
1370 181 1 -1.1128 0.3289371769712758 3.422546480018774 3.163465935450096 4 -2 0
1859 344 1 -1.1128 -1.1559172075714128 5.909793999614285 3.6204978680092674 0 -1 0
938 37 1 -1.1128 4.532074303118974 3.0844702909388273 6.617719951834452 1 -1 0
1397 190 1 -1.1128 -1.5389845818457515 1.9993695030316214 6.9231906114249435 0 2 0
2293 488 2 0.5564 2.8772084727651217 2.0538760789950996 2.076929729802397 1 1 0
2291 488 1 -1.1128 2.9878750257057063 1.1652766945425002 2.4151306404948847 1 1 0
2847 673 2 0.5564 -0.6572487369997765 1.8076510329353868 2.7322946801086148 0 1 0
2292 488 2 0.5564 2.256967655970636 0.6733290618140619 2.0409700759202263 1 1 0
2331 501 2 0.5564 -1.8045643778013307 0.8300545539245148 8.415896506595224 3 -2 0
1401 191 2 0.5564 11.421512601222343 0.542140878476745 1.226430222870061 -1 0 0
1587 253 2 0.5564 4.859064690244826 5.764747047136249 0.9487006407471376 0 -2 0
2716 629 2 0.5564 7.826590106226866 5.753112977798132 9.014926678398286 -1 -2 0
2846 673 1 -1.1128 -1.006962748601683 1.167525491932536 2.112477706861284 0 1 0
2250 474 2 0.5564 6.581173305588456 -0.32205366189306023 5.140429064459557 5 0 0
2316 496 2 0.5564 0.8503470762185096 6.35331614869202 1.112887381927008 0 -1 0
2848 673 2 0.5564 -0.3645746686290481 0.45789390560237403 2.1122953015320016 0 1 0
488 2 4 0 9.82419 7.09 12.736959109302104 0 0 0
836 3 1 -1.1128 6.605027128484788 7.343654330827158 3.250961788033907 -2 4 0
2493 555 2 0.5564 -1.6792053438119838 5.68212735274026 8.240882334168262 -3 0 0
2251 474 2 0.5564 7.073848381922619 0.9632361912351493 4.510191404590851 5 0 0
436 2 4 0 9.82419 2.836 12.736959109302104 0 0 0
939 37 2 0.5564 4.054055244954079 2.3233782132149545 6.288367179223734 1 -1 0
429 2 4 0 7.36814 0 12.736959109302104 0 0 0
2317 496 2 0.5564 1.3462161909073214 7.6149852413436765 1.786833529735028 0 -1 0
1798 323 2 0.5564 -0.9927908261493325 4.741708487131422 0.21646624874409162 0 0 0
1465 212 2 0.5564 3.99722327557946 5.164411366345574 9.070673184457636 3 -4 0
1588 253 2 0.5564 3.379282401401563 6.041078367294701 0.7881295087886594 0 -2 0
1876 349 2 0.5564 5.913854355484177 3.1269617617304144 5.257400251917924 2 2 0
1585 252 2 0.5564 8.21924726004028 0.9773880820958545 7.938316046841053 1 -1 0
487 2 4 0 8.59617 6.381 12.736959109302104 0 0 0
1586 253 1 -1.1128 4.18565203626618 5.92081984419072 0.28659082866724156 0 -2 0
1463 212 1 -1.1128 3.047983334656609 5.286702206470861 9.08553696694371 3 -4 0
1793 322 1 -1.1128 10.314654428458967 6.646319605906678 6.606387994703301 2 2 0
2835 669 2 0.5564 4.411066731413914 5.38514656092759 3.9675912993418936 3 -2 0
1675 282 2 0.5564 6.541327846086657 3.4344594057263467 9.055624800083097 -3 0 0
944 39 1 -1.1128 0.9503491369287329 -0.6167654910702224 1.8911390535464498 -4 0 0
2771 648 1 -1.1128 12.310599042582309 -0.6984897159342383 9.441398611525326 -2 0 0
1719 297 2 0.5564 8.68532898830714 5.186065670489844 2.292347180973124 1 0 0
1874 349 1 -1.1128 6.583741246043444 2.9358873247726818 4.600912459109984 2 2 0
2410 527 2 0.5564 7.819501607574322 3.251505896378037 1.0135356676865843 2 4 0
1718 297 1 -1.1128 8.052962820666998 4.971471486102336 1.6065658534219216 1 0 0
2315 496 1 -1.1128 1.650811235521545 6.832071160235966 1.328025331067495 0 -1 0
1584 252 2 0.5564 7.268820498329967 1.1632358423163331 9.101951427226592 1 -1 0
2000 391 1 -1.1128 5.360338553507001 4.6768734486519055 2.655786005683483 2 -1 0
1938 370 2 0.5564 9.839389111825943 6.797883161452003 2.908923819221226 3 0 0
2299 490 2 0.5564 9.10575267719803 5.308478001666365 4.784022642105979 0 -2 0
2297 490 1 -1.1128 8.380041765971715 4.840192224748304 5.196682756293646 0 -2 0
2584 585 2 0.5564 10.36447013129972 1.489506982832871 4.862953813362054 5 -1 0
3143 772 1 -1.1128 13.475815495642422 3.0593415977825975 9.654460358716252 3 3 0
2002 391 2 0.5564 6.1746884781222695 4.9989322343769365 2.269332945521136 2 -1 0
1875 349 2 0.5564 7.140146363428843 3.7147156406493433 4.592077625693838 2 2 0
2433 535 2 0.5564 6.906222719741761 5.942673825567653 5.959921637445785 -2 -4 0
2249 474 1 -1.1128 7.215948463882632 0.016641121200881737 4.509094621831289 5 0 0
435 2 4 0 8.59617 2.127 12.736959109302104 0 0 0
2298 490 2 0.5564 8.789790539224951 4.330745979119613 5.895828342901273 0 -2 0
3053 742 1 -1.1128 8.709667376732051 7.491749850090556 0.14231231790930626 -2 0 0
2757 643 2 0.5564 10.942014687153865 2.517423842228931 2.2536816489782154 0 2 0
2892 688 2 0.5564 12.852143051649339 5.053426155749692 4.096070966931322 -1 -1 0
1583 252 1 -1.1128 7.996541348383481 0.6206620933870934 8.798190348926461 1 -1 0
2432 535 1 -1.1128 6.056317541918704 6.184022962976543 6.328221703006065 -2 -4 0
2893 688 2 0.5564 12.976791230658858 6.45397712016391 3.534979668623782 -1 -1 0
1892 355 1 -1.1128 12.456073768179202 3.651162585949607 5.524907132657683 2 1 0
1894 355 2 0.5564 11.802763984594009 3.9730877019049324 6.146023100895151 2 1 0
2434 535 2 0.5564 5.418081437602025 5.850921892003686 5.6974034268755505 -2 -4 0
2903 692 1 -1.1128 10.137147656185554 3.824105772683934 7.154696421491781 1 0 0
1893 355 2 0.5564 11.984166232192269 3.0135735677709965 4.989163524042958 2 1 0
1939 370 2 0.5564 11.000426498852391 5.834678146868276 2.7819439361602956 3 0 0
437 2 4 0 12.2802 0 12.736959109302104 0 0 0
2461 544 2 0.5564 9.945315919870016 0.030375519658059853 6.414245441619395 2 2 0
440 2 4 0 12.2802 2.836 12.736959109302104 0 0 0
2582 585 1 -1.1128 11.166173113742358 1.5706161364293687 4.346302224531034 5 -1 0
2756 643 1 -1.1128 11.09417590514368 2.340343451421576 1.325391943369535 0 2 0
2891 688 1 -1.1128 12.994346485223073 5.531738692966494 3.2792297670917487 -1 -1 0
2758 643 2 0.5564 11.725703808622 3.006633175210183 1.054347279454287 0 2 0
1937 370 1 -1.1128 10.097772078324997 5.895125197047615 3.0946628224868684 3 0 0
2583 585 2 0.5564 11.750736294454803 0.9022711591808281 4.703841932420736 5 -1 0
2001 391 2 0.5564 5.621084894818987 3.90242199692175 3.1542542816129036 2 -1 0
2459 544 1 -1.1128 9.282805843696472 0.7010928331659392 6.248542729608614 2 2 0
2904 692 2 0.5564 10.209531209236491 4.086520531503002 8.072376369076355 1 0 0
3010 727 2 0.5564 10.611273511956409 5.322749754020967 9.446649822787052 1 2 0
2905 692 2 0.5564 10.303253733430811 2.8814471347510278 7.16083076173015 1 0 0
2715 629 2 0.5564 6.68511466445301 5.914416163949941 8.03364534364834 -1 -2 0
885 19 2 0.5564 13.932702435805549 3.0414762537947957 6.545999599710291 -2 0 0
1720 297 2 0.5564 8.12257902099169 5.693125264157475 0.9815844603056314 1 0 0
3106 759 2 0.5564 -1.6600550177625595 7.667456104025908 8.923505499066646 2 0 0
2634 602 2 0.5564 -1.5025706448668532 1.9111600793320376 0.36006176166036 1 -3 0
2923 698 2 0.5564 2.0694916843572964 6.729606432438512 9.652853405877835 1 2 0
2283 485 2 0.5564 -1.6744875257477096 4.712886384774265 4.890510705104418 -2 1 0
972 48 2 0.5564 11.535123748241318 0.9434166028158304 9.364173281022847 -1 3 0
495 2 4 0 13.5083 6.381 12.736959109302104 0 0 0
2409 527 2 0.5564 8.843639077629069 2.1384471795240922 1.0778702715241262 2 4 0
3141 771 2 0.5564 4.456025537596081 -0.1521069958458523 8.905307546377925 4 -2 0
2460 544 2 0.5564 8.694356914015456 0.30374396112171903 5.606610107761108 2 2 0
1398 190 2 0.5564 -0.6535144591178181 1.955995502281014 6.5622281806812115 0 2 0
2714 629 1 -1.1128 6.871982671594201 5.720975792633904 8.95228290568758 -1 -2 0
2652 608 2 0.5564 1.2329080360884026 3.2298734668047806 7.763662068214003 0 0 0
489 2 4 0 12.2802 4.254 12.736959109302104 0 0 0
481 2 4 0 7.36814 4.254 12.736959109302104 0 0 0
3140 771 1 -1.1128 4.294607169570791 0.2783510157450992 9.744880217759187 4 -2 0
2049 407 2 0.5564 3.4169403153717415 0.11818349107914543 5.888811056811991 -2 0 0
1742 305 1 -1.1128 -0.45424653278820015 5.023428213494384 9.33261736923817 -1 1 0
2649 607 2 0.5564 7.303867606344611 0.7045868321952062 0.09328194456685707 2 3 0
484 2 4 0 7.36814 7.09 12.736959109302104 0 0 0
3142 771 2 0.5564 5.101480972428576 0.7601947393863867 9.926575593884904 4 -2 0
1443 205 2 0.5564 2.1441399842821762 0.5521022799071781 9.750801498852407 -3 0 0
2504 559 1 -1.1128 1.1181385743638692 2.662591764405981 5.96258541585056 2 -1 0
1744 305 2 0.5564 0.3367412415784631 5.518223023773374 9.546509501296947 -1 1 0
2505 559 2 0.5564 0.9636346306694512 3.0742866048416215 5.112367899459541 2 -1 0
1400 191 1 -1.1128 11.405420914310707 -0.414222817057556 1.189722507779397 -1 0 0
2651 608 1 -1.1128 1.3214906432681581 3.0390749025604373 8.697464231914465 0 0 0
482 2 4 0 6.14012 4.963 12.736959109302104 0 0 0
480 2 4 0 4.9121 7.09 12.736959109302104 0 0 0
483 2 4 0 6.14012 6.381 12.736959109302104 0 0 0
417 2 4 0 0 0 12.736959109302104 0 0 0
418 2 4 0 -1.22802 0.709 12.736959109302104 0 0 0
419 2 4 0 -1.22802 2.127 12.736959109302104 0 0 0
420 2 4 0 0 2.836 12.736959109302104 0 0 0
421 2 4 0 2.45605 0 12.736959109302104 0 0 0
422 2 4 0 1.22802 0.709 12.736959109302104 0 0 0
423 2 4 0 1.22802 2.127 12.736959109302104 0 0 0
424 2 4 0 2.45605 2.836 12.736959109302104 0 0 0
425 2 4 0 4.9121 0 12.736959109302104 0 0 0
426 2 4 0 3.68407 0.709 12.736959109302104 0 0 0
427 2 4 0 3.68407 2.127 12.736959109302104 0 0 0
428 2 4 0 4.9121 2.836 12.736959109302104 0 0 0
430 2 4 0 6.14012 0.709 12.736959109302104 0 0 0
431 2 4 0 6.14012 2.127 12.736959109302104 0 0 0
469 2 4 0 0 4.254 12.736959109302104 0 0 0
470 2 4 0 -1.22802 4.963 12.736959109302104 0 0 0
471 2 4 0 -1.22802 6.381 12.736959109302104 0 0 0
472 2 4 0 0 7.09 12.736959109302104 0 0 0
473 2 4 0 2.45605 4.254 12.736959109302104 0 0 0
474 2 4 0 1.22802 4.963 12.736959109302104 0 0 0
475 2 4 0 1.22802 6.381 12.736959109302104 0 0 0
476 2 4 0 2.45605 7.09 12.736959109302104 0 0 0
477 2 4 0 4.9121 4.254 12.736959109302104 0 0 0
478 2 4 0 3.68407 4.963 12.736959109302104 0 0 0
479 2 4 0 3.68407 6.381 12.736959109302104 0 0 0
2653 608 2 0.5564 1.2488508883450897 2.0864112982226324 8.755699593359232 0 0 0
1442 205 1 -1.1128 1.2767272527701503 0.4096233836017574 9.371948356250156 -3 0 0
1464 212 2 0.5564 2.691330363255586 4.398551665130468 9.070678571438762 3 -4 0
1743 305 2 0.5564 -0.13824734078460835 4.144446560428223 9.123401728911977 -1 1 0
2332 501 2 0.5564 -0.9357429308954295 0.5952967458799633 9.633244120492122 3 -2 0
2506 559 2 0.5564 1.7399753260550697 1.958471492076137 5.778814636752757 2 -1 0
494 2 4 0 13.5083 4.963 12.736959109302104 0 0 0
1673 282 1 -1.1128 6.091023097187552 2.602653398786298 8.908798954652546 -3 0 0
1674 282 2 0.5564 5.5706893230556895 2.7476635328041983 8.118570911365934 -3 0 0
973 48 2 0.5564 10.063443234279196 1.2437640997622927 9.55349928701182 -1 3 0
1515 229 2 0.5564 12.948143833799891 5.191708886062733 9.33712520230784 1 -1 0
1806 326 2 0.5564 0.8215772482143664 7.7634661083041685 5.566288057915047 1 1 0
3008 727 1 -1.1128 9.703459076952825 5.044848299438012 9.568642170071213 1 2 0
1444 205 2 0.5564 1.0595588022044047 -0.4936505571000394 9.602533372835962 -3 0 0
442 2 4 0 13.5083 0.709 12.736959109302104 0 0 0
491 2 4 0 11.0522 6.381 12.736959109302104 0 0 0
1514 229 1 -1.1128 12.411669282034325 5.886361680030497 9.719075031055437 1 -1 0
438 2 4 0 11.0522 0.709 12.736959109302104 0 0 0
432 2 4 0 7.36814 2.836 12.736959109302104 0 0 0
3144 772 2 0.5564 12.580880210074477 2.7338068767522623 9.751158942878783 3 3 0
439 2 4 0 11.0522 2.127 12.736959109302104 0 0 0
486 2 4 0 8.59617 4.963 12.736959109302104 0 0 0
433 2 4 0 9.82419 0 12.736959109302104 0 0 0
2408 527 1 -1.1128 8.005589181215148 2.373887411690422 0.6797843658638224 2 4 0
971 48 1 -1.1128 10.90307415863476 1.6622695747364553 9.363481369562354 -1 3 0
434 2 4 0 8.59617 0.709 12.736959109302104 0 0 0
490 2 4 0 11.0522 4.963 12.736959109302104 0 0 0
492 2 4 0 12.2802 7.09 12.736959109302104 0 0 0
443 2 4 0 13.5083 2.127 12.736959109302104 0 0 0
3009 727 2 0.5564 9.7273948194372 4.478720867431139 10.340109479865532 1 2 0
2921 698 1 -1.1128 1.399204169799779 7.409108585595327 9.72515140889482 1 2 0
2029 400 2 0.5564 4.105153453301904 -0.19245116052806185 1.5084359459099292 1 -1 0
3224 799 1 -1.1128 13.028703596732932 4.397635917712039 0.5016874503643186 0 -4 0
1795 322 2 0.5564 11.260369379347528 6.5239394334116865 6.689325087974306 2 2 0
1805 326 1 -1.1128 -0.11876037501582197 7.668951571949864 5.414418234172026 1 1 0
1402 191 2 0.5564 10.861805535440935 -0.6738222478398015 1.9335799170834345 -1 0 0
105 1 3 0 0 8.508 -13.028967241974486 0 0 0
106 1 3 0 -1.22802 9.217 -13.028967241974486 0 0 0
107 1 3 0 -1.22802 10.635 -13.028967241974486 0 0 0
108 1 3 0 0 11.344 -13.028967241974486 0 0 0
109 1 3 0 2.45605 8.508 -13.028967241974486 0 0 0
110 1 3 0 1.22802 9.217 -13.028967241974486 0 0 0
111 1 3 0 1.22802 10.635 -13.028967241974486 0 0 0
112 1 3 0 2.45605 11.344 -13.028967241974486 0 0 0
113 1 3 0 4.9121 8.508 -13.028967241974486 0 0 0
114 1 3 0 3.68407 9.217 -13.028967241974486 0 0 0
115 1 3 0 3.68407 10.635 -13.028967241974486 0 0 0
116 1 3 0 4.9121 11.344 -13.028967241974486 0 0 0
118 1 3 0 6.14012 9.217 -13.028967241974486 0 0 0
119 1 3 0 6.14012 10.635 -13.028967241974486 0 0 0
157 1 3 0 0 12.762 -13.028967241974486 0 0 0
158 1 3 0 -1.22802 13.471 -13.028967241974486 0 0 0
159 1 3 0 -1.22802 14.889 -13.028967241974486 0 0 0
160 1 3 0 0 15.598 -13.028967241974486 0 0 0
161 1 3 0 2.45605 12.762 -13.028967241974486 0 0 0
162 1 3 0 1.22802 13.471 -13.028967241974486 0 0 0
163 1 3 0 1.22802 14.889 -13.028967241974486 0 0 0
164 1 3 0 2.45605 15.598 -13.028967241974486 0 0 0
165 1 3 0 4.9121 12.762 -13.028967241974486 0 0 0
166 1 3 0 3.68407 13.471 -13.028967241974486 0 0 0
167 1 3 0 3.68407 14.889 -13.028967241974486 0 0 0
168 1 3 0 4.9121 15.598 -13.028967241974486 0 0 0
170 1 3 0 6.14012 13.471 -13.028967241974486 0 0 0
171 1 3 0 6.14012 14.889 -13.028967241974486 0 0 0
3078 750 2 0.5564 3.964651141136438 10.311192026351948 -9.69454276724378 3 -2 0
3077 750 1 -1.1128 4.871258739713897 10.5480990946352 -9.499169877390232 3 -2 0
3079 750 2 0.5564 4.934222548958302 10.490544298691248 -8.54577794036299 3 -2 0
977 50 1 -1.1128 6.355148095384741 8.352119543790739 -1.462037781312542 -3 2 0
1779 317 2 0.5564 7.507658498062118 8.438021898307124 -9.832854106535116 2 0 0
1457 210 1 -1.1128 4.081640866647515 12.056693572401604 -7.316329273313434 2 1 0