LAMMPS data file via write_data, version 2 Aug 2023, timestep = 6500000, units = real

3232 atoms
4 atom types
1600 bonds
1 bond types
800 angles
1 angle types
0 impropers
1 improper types

-1.8420299999999998 30.08661 xlo xhi
-0.709 33.323 ylo yhi
-150 150 zlo zhi

Masses

1 15.9994
2 1.00794
3 12.0107
4 12.0107

Pair Coeffs # lj/cut/tip4p/long

1 0.1852 3.1589
2 0 0
3 0.0859 3.3997
4 0.0859 3.3997

Bond Coeffs # harmonic

1 5000 0.9572

Angle Coeffs # harmonic

1 500 104.52

Atoms # full

1 1 3 0 0 0 -13.028967241974486 0 0 0
2 1 3 0 -1.22802 0.709 -13.028967241974486 0 0 0
3 1 3 0 -1.22802 2.127 -13.028967241974486 0 0 0
4 1 3 0 0 2.836 -13.028967241974486 0 0 0
5 1 3 0 2.45605 0 -13.028967241974486 0 0 0
6 1 3 0 1.22802 0.709 -13.028967241974486 0 0 0
7 1 3 0 1.22802 2.127 -13.028967241974486 0 0 0
8 1 3 0 2.45605 2.836 -13.028967241974486 0 0 0
9 1 3 0 4.9121 0 -13.028967241974486 0 0 0
10 1 3 0 3.68407 0.709 -13.028967241974486 0 0 0
11 1 3 0 3.68407 2.127 -13.028967241974486 0 0 0
12 1 3 0 4.9121 2.836 -13.028967241974486 0 0 0
14 1 3 0 6.14012 0.709 -13.028967241974486 0 0 0
15 1 3 0 6.14012 2.127 -13.028967241974486 0 0 0
53 1 3 0 0 4.254 -13.028967241974486 0 0 0
54 1 3 0 -1.22802 4.963 -13.028967241974486 0 0 0
55 1 3 0 -1.22802 6.381 -13.028967241974486 0 0 0
56 1 3 0 0 7.09 -13.028967241974486 0 0 0
57 1 3 0 2.45605 4.254 -13.028967241974486 0 0 0
58 1 3 0 1.22802 4.963 -13.028967241974486 0 0 0
59 1 3 0 1.22802 6.381 -13.028967241974486 0 0 0
60 1 3 0 2.45605 7.09 -13.028967241974486 0 0 0
61 1 3 0 4.9121 4.254 -13.028967241974486 0 0 0
62 1 3 0 3.68407 4.963 -13.028967241974486 0 0 0
63 1 3 0 3.68407 6.381 -13.028967241974486 0 0 0
64 1 3 0 4.9121 7.09 -13.028967241974486 0 0 0
66 1 3 0 6.14012 4.963 -13.028967241974486 0 0 0
67 1 3 0 6.14012 6.381 -13.028967241974486 0 0 0
2027 400 1 -1.1128 4.248006961033902 0.8918227510810149 -9.61633404345776 2 -2 0
2029 400 2 0.5564 5.00020498234684 1.316384665754427 -10.0288591505864 2 -2 0
1961 378 1 -1.1128 4.215345219230074 5.660577024802928 -7.632605054327884 -1 4 0
1962 378 2 0.5564 3.8659866233015916 5.0528814435871645 -8.28443700892279 -1 4 0
1908 360 2 0.5564 6.541166325325111 3.527724633845602 -10.270290776738781 -1 -1 0
1963 378 2 0.5564 4.428050975274541 5.108888924696383 -6.8798581855639656 -1 4 0
1349 174 1 -1.1128 2.742797657192073 3.92702870613452 -9.081575934553479 -2 0 0
1907 360 1 -1.1128 6.6258218582499415 2.666572868588183 -9.861044291279285 -1 -1 0
919 30 2 0.5564 1.0101703677188414 6.348518718776947 -10.128566326464687 2 -4 0
1351 174 2 0.5564 3.0573128351880205 3.2879354059210213 -9.721006711198827 -2 0 0
917 30 1 -1.1128 0.6860127969107555 5.488066708697968 -9.86252535861127 2 -4 0
1909 360 2 0.5564 6.592323947714317 2.843313686860421 -8.920899778910616 -1 -1 0
1350 174 2 0.5564 2.128837734179213 3.4370396355409767 -8.534583522493111 -2 0 0
2559 577 2 0.5564 0.6826052659554434 3.4194016164083494 -0.3282054333070936 3 0 0
934 35 2 0.5564 2.4069911466359244 1.6056116043023037 -7.219457439455638 -2 -3 0
2028 400 2 0.5564 4.513305618056426 -0.022464800556358237 -9.51670224132841 2 -2 0
1719 297 2 0.5564 7.124282871707209 6.304255362374788 -9.088896813372351 1 0 0
1720 297 2 0.5564 5.844984877788837 5.662063163647972 -8.596066186002373 1 0 0
836 3 1 -1.1128 6.56282713764177 -0.14574972973445308 -0.7182178247136394 -3 4 0
918 30 2 0.5564 1.4107164195980557 5.099590437962294 -9.372501506457674 2 -4 0
1795 322 2 0.5564 -1.318138754432989 -0.040441297946327 -6.1877685279666705 2 2 0
1427 200 1 -1.1128 -1.1420480480094883 3.5157493550852634 -9.43702852987688 3 1 0
1725 299 2 0.5564 13.512060628035277 2.766230007093321 -7.746681721101718 -1 -3 0
2341 504 2 0.5564 8.994550091718775 0.8580032575865014 -8.721783196954258 6 0 0
2339 504 1 -1.1128 8.789723684235186 0.8526605438884547 -9.656798903887001 6 0 0
1981 384 2 0.5564 13.344248544636438 4.748113927684286 -9.728084845371722 3 0 0
13 1 3 0 7.36814 0 -13.028967241974486 0 0 0
16 1 3 0 7.36814 2.836 -13.028967241974486 0 0 0
17 1 3 0 9.82419 0 -13.028967241974486 0 0 0
18 1 3 0 8.59617 0.709 -13.028967241974486 0 0 0
19 1 3 0 8.59617 2.127 -13.028967241974486 0 0 0
20 1 3 0 9.82419 2.836 -13.028967241974486 0 0 0
21 1 3 0 12.2802 0 -13.028967241974486 0 0 0
22 1 3 0 11.0522 0.709 -13.028967241974486 0 0 0
23 1 3 0 11.0522 2.127 -13.028967241974486 0 0 0
24 1 3 0 12.2802 2.836 -13.028967241974486 0 0 0
26 1 3 0 13.5083 0.709 -13.028967241974486 0 0 0
27 1 3 0 13.5083 2.127 -13.028967241974486 0 0 0
65 1 3 0 7.36814 4.254 -13.028967241974486 0 0 0
68 1 3 0 7.36814 7.09 -13.028967241974486 0 0 0
69 1 3 0 9.82419 4.254 -13.028967241974486 0 0 0
70 1 3 0 8.59617 4.963 -13.028967241974486 0 0 0
71 1 3 0 8.59617 6.381 -13.028967241974486 0 0 0
72 1 3 0 9.82419 7.09 -13.028967241974486 0 0 0
73 1 3 0 12.2802 4.254 -13.028967241974486 0 0 0
74 1 3 0 11.0522 4.963 -13.028967241974486 0 0 0
75 1 3 0 11.0522 6.381 -13.028967241974486 0 0 0
76 1 3 0 12.2802 7.09 -13.028967241974486 0 0 0
78 1 3 0 13.5083 4.963 -13.028967241974486 0 0 0
79 1 3 0 13.5083 6.381 -13.028967241974486 0 0 0
2340 504 2 0.5564 8.080188861082625 1.4882548235249162 -9.75067705413736 6 0 0
1718 297 1 -1.1128 6.716723278611065 5.452600438770635 -8.931376253365645 1 0 0
1979 384 1 -1.1128 12.423008826899796 4.9857107984054805 -9.622736752453575 3 0 0
1980 384 2 0.5564 11.963717075066373 4.1476545038302035 -9.568473491845957 3 0 0
2045 406 1 -1.1128 -1.7011978804660084 -0.3486746742837456 -3.416699049260539 -1 0 0
2467 546 2 0.5564 10.817754606368974 6.886192472913589 -9.371439318594788 5 -1 0
2465 546 1 -1.1128 11.064961899689989 7.737929989488892 -9.731527148772003 5 -1 0
1294 155 2 0.5564 -1.4998966688308646 0.873681782220767 -1.8716654177340561 -1 2 0
1830 334 2 0.5564 7.247410429598662 4.868527492916996 -7.189403658029132 -1 1 0
2630 601 1 -1.1128 10.914038117366607 2.776585457104033 -10.22568292175735 -4 0 0
2631 601 2 0.5564 11.151590923729481 3.055889832277174 -11.109871546293897 -4 0 0
2216 463 1 -1.1128 2.123496574681812 0.17686686718027014 -0.6734248015218715 0 0 0
2817 663 2 0.5564 7.216038414687343 -0.028396307337244273 -4.784583646983494 5 -2 0
2850 674 2 0.5564 11.669509611864115 1.7723510600841828 -8.872406656417981 0 1 0
2851 674 2 0.5564 12.298009224857418 0.41382517449468054 -8.645931825139503 0 1 0
995 56 1 -1.1128 9.076353954375685 5.811341144168341 -2.4742637872792503 4 -3 0
2764 645 2 0.5564 9.082787486751549 1.6954854596514415 -1.0236695233213557 0 4 0
1799 324 1 -1.1128 0.7769251540587204 2.8196097408906664 -7.545256268928051 2 0 0
1801 324 2 0.5564 0.5709313812340167 3.420673888832784 -6.829350489482556 2 0 0
1800 324 2 0.5564 0.07061295495860541 2.949198816218432 -8.17815945533775 2 0 0
1429 200 2 0.5564 -0.42084050820686075 4.024222012308785 -9.80790459645293 3 1 0
888 20 2 0.5564 13.449470366783524 5.042144143534875 -1.288928905308872 1 2 0
2359 510 2 0.5564 5.362117869074179 3.80414998173855 -0.25703480582692695 1 -2 0
932 35 1 -1.1128 3.167861258507897 1.0730676368276275 -6.987715285106561 -2 -3 0
1611 261 2 0.5564 3.9558087802015196 7.130697364977994 -6.8396503020148325 -5 2 0
3035 736 1 -1.1128 0.2825739094510831 1.701443556300233 -4.228089934714199 3 2 0
1742 305 1 -1.1128 5.764151850683778 2.1258585259412013 -7.063087149442737 -1 1 0
1098 90 2 0.5564 3.0395600104805496 1.6502254133738112 -5.072230833118705 2 1 0
1532 235 1 -1.1128 2.0208442022761237 5.745085277698924 -3.368441898221607 1 -3 0
1874 349 1 -1.1128 -1.3447511450206788 3.8583402921058325 -4.154585476341916 1 2 0
2252 475 1 -1.1128 4.559063644636996 1.1378397490741858 -2.179789485733721 3 -1 0
1841 338 1 -1.1128 4.6483044984095025 3.9608733267443146 -5.277356818347792 0 -3 0
1533 235 2 0.5564 1.810923369309899 4.981241371628824 -2.831125744360528 1 -3 0
1099 90 2 0.5564 3.5069170718086067 1.8836248631622452 -3.6513160583966973 2 1 0
1097 90 1 -1.1128 2.955270668430174 2.2584398104308865 -4.337925961849364 2 1 0
1047 73 2 0.5564 9.72795976626028 6.5796041019444065 -5.877614889457621 3 -1 0
2967 713 2 0.5564 10.768148299501926 -0.03316069593180225 -0.5314343621967655 -3 -1 0
1843 338 2 0.5564 3.982997346740794 3.5020132380632574 -4.764470405248801 0 -3 0
1842 338 2 0.5564 5.396153009503773 4.039211676501548 -4.685057522897905 0 -3 0
3036 736 2 0.5564 1.180135706564572 1.9043533928943377 -3.96457465468755 3 2 0
1744 305 2 0.5564 5.1310212750300455 2.3349014279821474 -6.3762991397289674 -1 1 0
1797 323 2 0.5564 3.799404774168421 5.963303021961939 -2.7646441204611976 1 0 0
3152 775 1 -1.1128 -0.8318189223914096 0.8085314259005281 -9.463208735285766 5 -1 0
1743 305 2 0.5564 6.038175903577151 1.2288634511009577 -6.8719260837677245 -1 1 0
1796 323 1 -1.1128 4.543130919594495 6.183715028610598 -2.203820139760902 1 0 0
933 35 2 0.5564 3.685790556620232 1.031866947421909 -7.791632501957182 -2 -3 0
2253 475 2 0.5564 3.81435448005099 0.7125577611778829 -1.754613748901148 3 -1 0
1285 152 2 0.5564 12.483715922646443 5.379868581337791 -5.410261863891416 1 1 0
2254 475 2 0.5564 4.674387812775103 1.9571824081065006 -1.6985306456565075 3 -1 0
3217 796 2 0.5564 11.737922473115036 -0.4959616009039776 -5.506719158617829 -1 0 0
997 56 2 0.5564 9.64838620350899 6.040589683402095 -3.2066954328498545 4 -3 0
2218 463 2 0.5564 1.64523239154138 0.8779912988403623 -0.2307961315382794 0 0 0
1065 79 2 0.5564 9.830909642638373 6.174169952656186 -0.7486011667089036 3 -1 0
907 26 2 0.5564 13.207379104903154 7.653184497285366 -6.531795458922873 2 2 0
2558 577 1 -1.1128 0.8911991358027036 4.171175592015419 -0.8827830300023669 3 0 0
1724 299 1 -1.1128 14.047176070563085 3.3985419157281234 -7.267031052130551 -1 -3 0
3037 736 2 0.5564 -0.1758761826624142 2.5405796792042397 -4.184429206759283 3 2 0
1798 323 2 0.5564 5.310341831785332 5.895628409987817 -2.6984168633908943 1 0 0
996 56 2 0.5564 8.192105305182917 5.85192787275192 -2.8385323839694925 4 -3 0
1270 147 2 0.5564 1.5279047072413565 5.07134703232181 -5.110610402449785 -6 0 0
1450 207 2 0.5564 1.2296936461633738 6.5377844607028255 -6.492942044250392 3 0 0
2632 601 2 0.5564 10.217115316369956 2.1335570867223663 -10.356244748536149 -4 0 0
1268 147 1 -1.1128 0.8417138838316999 4.973499929010372 -5.770764609310729 -6 0 0
1793 322 1 -1.1128 -1.5045095185188018 0.6268738466917735 -6.848212880912621 2 2 0
2358 510 2 0.5564 4.212080441974953 4.522210221265942 -0.9306047962622487 1 -2 0
2531 568 1 -1.1128 13.75991556729196 1.9412115044613405 -2.2297324143785047 -2 4 0
1046 73 1 -1.1128 9.977437312960806 5.655752481520412 -5.899822166575179 3 -1 0
2385 519 2 0.5564 8.863617589952138 1.083888594780434 -2.8227908665216317 0 3 0
1449 207 2 0.5564 2.0939744512720195 7.719699681620479 -6.877642099093173 3 0 0
2357 510 1 -1.1128 4.520708044773913 3.649647590670915 -0.6864444548613495 1 -2 0
1269 147 2 0.5564 0.04346917118572603 4.817936483504731 -5.26594715978757 -6 0 0
3153 775 2 0.5564 -0.02915652955073313 0.34903851546852077 -9.70985424926077 5 -1 0
3154 775 2 0.5564 -1.1508622773366404 0.3378317752175391 -8.693217830788923 5 -1 0
2543 572 1 -1.1128 12.849049971823684 -0.6892034602733895 -3.041105843282878 -2 -3 0
1428 200 2 0.5564 -1.0904934565990816 2.6683504700248246 -9.879171900765565 3 1 0
1534 235 2 0.5564 1.788715118908445 6.494942516951305 -2.8206584100066308 1 -3 0
2816 663 1 -1.1128 6.854534064901841 -0.2112289097528663 -5.651830994416253 5 -2 0
1831 334 2 0.5564 7.052401124689564 3.5601298611732974 -6.453229354052865 -1 1 0
2849 674 1 -1.1128 11.975532289487834 1.1857135188340113 -8.18071264677608 0 1 0
2832 668 2 0.5564 10.355872435641547 1.1761490754621367 -7.166579325489763 1 0 0
1162 111 2 0.5564 12.688209509501714 3.3110397943196372 -1.9733133008227806 -2 -1 0
1688 287 1 -1.1128 6.693663948922604 5.661254235992196 -3.9269384873589144 -1 1 0
1689 287 2 0.5564 6.81390413517485 5.214376729918494 -4.764834580344242 -1 1 0
1690 287 2 0.5564 6.548067747451888 6.577554445781969 -4.162369375313845 -1 1 0
1161 111 2 0.5564 11.57373285203354 3.7780148791390764 -1.0613049176261584 -2 -1 0
2968 713 2 0.5564 12.16437125794068 0.257140298637253 -0.02331457376647682 -3 -1 0
900 24 2 0.5564 -1.091991092228064 6.3945231327523055 -9.343043653180706 1 1 0
1448 207 1 -1.1128 1.2408044067025896 7.319434330811408 -7.0453328719471795 3 0 0
1628 267 1 -1.1128 11.340899154588074 1.0139570113610816 -4.673606321235323 -3 -1 0
2386 519 2 0.5564 8.07443607811802 1.9484627337835267 -3.7827929530993587 0 3 0
2833 668 2 0.5564 9.271225581404295 1.2357200331056046 -6.112117537652298 1 0 0
1281 151 2 0.5564 7.875132410929768 3.611525189593604 -0.8206455349895917 1 -2 0
2560 577 2 0.5564 0.04891992230553513 4.439718110607862 -1.2497753713682498 3 0 0
2763 645 2 0.5564 8.353038182460777 0.37408179434882854 -0.9085770135256529 0 4 0
2762 645 1 -1.1128 9.215150630548834 0.7496259418839761 -1.087351963313027 0 4 0
1629 267 2 0.5564 10.444980304078031 0.9955993623666494 -4.337111243205963 -3 -1 0
2437 536 2 0.5564 5.967869867429759 1.9651174523128385 -3.3445159964881914 2 -2 0
2831 668 1 -1.1128 9.447008444227848 0.9258699668486022 -7.000557378189095 1 0 0
1048 73 2 0.5564 9.17909889342701 5.197844359120521 -6.162900776898093 3 -1 0
2435 536 1 -1.1128 6.515326298006594 2.6630884288252394 -3.704179902682489 2 -2 0
2436 536 2 0.5564 6.99606004840883 3.0038458434978783 -2.9498548454200337 2 -2 0
1630 267 2 0.5564 11.542970801042355 1.94486772284379 -4.767462709346604 -3 -1 0
1160 111 1 -1.1128 12.100605854737717 4.049439960578061 -1.8129420359883206 -2 -1 0
838 3 2 0.5564 5.79184362131617 0.32354013891558037 -1.036938777744752 -3 4 0
1280 151 1 -1.1128 8.2524486407406 3.3272214497650854 -1.653133480507822 1 -2 0
1283 152 1 -1.1128 13.14754878224295 5.949427585946655 -5.799056424323074 1 1 0
1829 334 1 -1.1128 7.484281455381997 4.411423416611761 -6.382449297991562 -1 1 0
2966 713 1 -1.1128 11.665492722882913 -0.36570990690532823 -0.551906934425603 -3 -1 0
1794 322 2 0.5564 -0.7417676232191328 1.2048191507811328 -6.8273112085051855 2 2 0
857 10 1 -1.1128 11.45044959215868 3.8359762466114273 -4.545802845041035 -1 4 0
858 10 2 0.5564 11.54534405552275 4.006987497565409 -3.6087964007169973 -1 4 0
2545 572 2 0.5564 12.483609103625534 0.0307109357173755 -3.5553146655126135 -2 -3 0
859 10 2 0.5564 10.937217157283932 4.574403402151237 -4.873754929413498 -1 4 0
1282 151 2 0.5564 8.76633230699643 4.0773146885388405 -1.952324839733146 1 -2 0
2384 519 1 -1.1128 8.737333934256204 1.2584987525602052 -3.755420773807922 0 3 0
1284 152 2 0.5564 13.609772255274704 5.388712446325524 -6.422098524867331 1 1 0
1876 349 2 0.5564 -1.5967381108221543 4.081873503325853 -3.2586114813885594 1 2 0
2046 406 2 0.5564 -0.9910040420998476 -0.315723373302602 -4.057613440325247 -1 0 0
2466 546 2 0.5564 11.817462292838432 7.551821913616075 -10.293076332918798 5 -1 0
893 22 1 -1.1128 1.621521761475856 -0.5242335724260454 -9.95566500789186 1 -4 0
2818 663 2 0.5564 5.981138266202592 -0.5625084926407845 -5.478585919354 5 -2 0
2550 574 2 0.5564 14.119499839798992 7.084326035823425 -1.0281030625472782 3 2 0
1292 155 1 -1.1128 -1.7678151884197868 1.4630296049364766 -1.1666010049812259 -1 2 0
2533 568 2 0.5564 13.438421766143351 1.1157459100446783 -1.867138471524686 -2 4 0
3087 753 2 0.5564 1.2901883320506637 7.660821374393146 -9.034669916396075 3 1 0
894 22 2 0.5564 2.33783924889524 -0.610201305110941 -10.584734384529458 1 -4 0
2544 572 2 0.5564 12.331502404792596 -0.6958847065376332 -2.2359134966013205 -2 -3 0
2217 463 2 0.5564 2.054944481595996 -0.571672329911898 -0.08078567313604595 0 0 0
1952 375 1 -1.1128 0.8463010291781294 5.384504036293581 4.860189222934254 -1 -2 0
1673 282 1 -1.1128 0.1975737108543623 6.542445064970394 2.3041865428194312 -4 1 0
1675 282 2 0.5564 -0.05795591441694084 7.45584558321662 2.433184135408604 -4 1 0
975 49 2 0.5564 -1.1084623848263557 3.892541613342106 7.44227305584703 -3 3 0
1000 57 2 0.5564 -1.2958990796678072 6.196117042332297 1.2768443181276583 3 -1 0
2555 576 1 -1.1128 5.6790394326298586 6.234870607575578 1.6171532244573468 0 -2 0
2556 576 2 0.5564 6.369181282351781 6.885487905718436 1.4881756939740363 0 -2 0
2474 549 1 -1.1128 3.7815931576888824 4.379064936213989 5.35254040655632 -1 1 0
2557 576 2 0.5564 5.7454158362626835 5.994602126722345 2.541328322359766 0 -2 0
1954 375 2 0.5564 1.2934953067273665 4.5870236140871405 4.57686027555248 -1 -2 0
2476 549 2 0.5564 3.3502823358615283 3.7230253597293923 4.804986336594883 -1 1 0
2475 549 2 0.5564 4.42068939390292 4.793105112456331 4.772575707306028 -1 1 0
1953 375 2 0.5564 1.5161752208633539 5.881278400499456 5.3299971832062285 -1 -2 0
1749 307 2 0.5564 12.111340024916972 -0.6657689694823447 5.738369735037443 1 -1 0
1674 282 2 0.5564 0.32597542896985826 6.201846620403717 3.189476937445913 -4 1 0
2299 490 2 0.5564 2.3341022950464336 2.0077038341774034 4.264807242976162 1 -1 0
1274 149 1 -1.1128 -0.9433802754614011 7.7840071236027635 6.011405149821726 1 0 0
1079 84 1 -1.1128 6.0238057000766885 3.0033619251940507 6.891013692141043 5 0 0
2959 710 2 0.5564 2.6450518172210002 4.15458938905265 8.286299292543028 -2 -3 0
2957 710 1 -1.1128 3.5189517047591736 4.541016406276007 8.229694227966121 -2 -3 0
2297 490 1 -1.1128 1.9691531801908717 2.8070272190393313 3.885168544330508 1 -1 0
969 47 2 0.5564 4.250714337483446 1.9438115022186646 6.26785585519115 1 4 0
1902 358 2 0.5564 0.7977162942632468 -0.2375837168409286 1.836647391402729 -2 3 0
3156 776 2 0.5564 3.6466027513846346 6.842051357115058 1.1203778902914947 5 2 0
1323 165 2 0.5564 7.604380033615791 0.7658060516735768 5.317393883943405 0 -2 0
974 49 1 -1.1128 -0.5084759326537618 3.475306590197812 6.824079644523609 -3 3 0
976 49 2 0.5564 -0.3506810073748943 4.142034900885323 6.155644441768863 -3 3 0
2298 490 2 0.5564 2.2650421423679474 2.797177793697408 2.9749010090450834 1 -1 0
2062 411 2 0.5564 -1.456487812959686 4.777226691559891 9.445607472881568 -1 3 0
1578 250 2 0.5564 13.852383902393232 0.056231245120451356 3.778202200687548 2 2 0
1081 84 2 0.5564 6.057718400858125 3.8192848500783283 6.3916632495726 5 0 0
1443 205 2 0.5564 13.482259274779151 1.9567305150581704 0.920988226495364 -3 0 0
1391 188 1 -1.1128 2.244668848965839 7.3730971976777795 6.102703531920984 4 -1 0
3134 769 1 -1.1128 3.752501870920642 2.9729200042993256 1.7810199885625617 0 1 0
3155 776 1 -1.1128 2.7633331628750986 7.210066156868849 1.1455196999248194 5 2 0
3135 769 2 0.5564 4.470304856462151 2.3707398083293865 1.9769069729816588 0 1 0
3136 769 2 0.5564 3.805264641397133 3.1095782927430435 0.8350943859128928 0 1 0
968 47 1 -1.1128 3.47768873754769 1.494444350646373 5.9261949706282815 1 4 0
2527 566 2 0.5564 6.48805783681715 4.539254290239716 1.0671472445404115 2 0 0
2569 580 2 0.5564 10.49886904651385 3.2266332781959175 1.8601082222469945 -1 -4 0
2761 644 2 0.5564 3.609975978931422 0.09746019576495082 9.062521999169403 0 1 0
2072 415 1 -1.1128 11.52389070646087 0.014262101399067459 7.267412944847395 3 -5 0
2525 566 1 -1.1128 6.99561503589549 3.815556694954103 0.6998841446140474 2 0 0
1482 218 2 0.5564 4.025094812746726 7.421867229121781 9.778850332400175 3 4 0
1276 149 2 0.5564 -1.3069954860650677 7.311742018986449 5.262416355711701 1 0 0
1442 205 1 -1.1128 13.781201804257913 1.0521582202457798 0.828147800965214 -3 0 0
1587 253 2 0.5564 12.389885415035009 5.961878081414433 2.990924738833308 -1 -2 0
2246 473 1 -1.1128 8.755638942844817 1.8128415206091861 9.36433332875405 -1 4 0
1275 149 2 0.5564 -0.0030433234662968333 7.609623035967811 5.9715497419152355 1 0 0
2332 501 2 0.5564 -1.5087592508990577 4.546978581724153 2.24823248226733 1 -2 0
2976 716 2 0.5564 5.015095283741811 7.3751029987980266 7.517060574077256 -2 0 0
1815 329 2 0.5564 6.60054402079633 1.4660734024926267 3.009698206070219 3 0 0
2331 501 2 0.5564 -1.673468580761653 3.638001982862042 3.447618801364788 1 -2 0
1814 329 1 -1.1128 6.234459919705228 1.6136453279602816 2.1376669219708653 3 0 0
2779 650 2 0.5564 6.77076937820928 6.483784152313936 9.223459634828048 1 -2 0
1080 84 2 0.5564 6.330739747475463 3.2440386794924687 7.765143290760209 5 0 0
2777 650 1 -1.1128 7.700058149333002 6.334814092635864 9.39799549138249 1 -2 0
1882 351 2 0.5564 10.712523348928427 7.2968593083986235 3.8847598657448774 -4 -3 0
2518 563 2 0.5564 12.921258724624156 4.007070782749328 5.096358949306574 0 -2 0
2517 563 2 0.5564 13.371462888661231 2.9651436173635175 4.094561494627578 0 -2 0
1816 329 2 0.5564 6.311537386496752 0.766614276213527 1.6985433003716512 3 0 0
2778 650 2 0.5564 8.052394611278 6.016791380294761 8.566755477526113 1 -2 0
1502 225 1 -1.1128 0.12332049671916623 1.649125385083012 0.8285443551329756 -1 -1 0
2848 673 2 0.5564 12.771977987870654 2.525385503870834 6.2046082421984305 -1 1 0
1976 383 1 -1.1128 6.119509671700217 5.4218193607624015 4.286142095645303 2 0 0
1978 383 2 0.5564 5.958171026260171 6.118058333213805 4.922894572472269 2 0 0
1324 165 2 0.5564 6.5345268795723905 1.8093092703191258 5.559075789139261 0 -2 0
1322 165 1 -1.1128 6.780101274019663 1.1006643859371519 4.964307760763749 0 -2 0
2516 563 1 -1.1128 12.596893766943627 3.286642424790257 4.555986694446714 0 -2 0
1977 383 2 0.5564 7.019811634655025 5.1448374956191945 4.456355716594972 2 0 0
2578 583 2 0.5564 11.065444324327922 2.6829657225071952 4.054523329342599 -6 0 0
1218 130 2 0.5564 10.10560327260837 5.85830715348729 7.6854727529230304 2 1 0
1660 277 2 0.5564 12.15582629860885 6.160277786280368 7.231095668228235 0 3 0
1659 277 2 0.5564 13.172675953017368 5.811763655081347 6.165051783002421 0 3 0
2285 486 1 -1.1128 8.74131020144706 4.604031446424989 4.55701379954296 -3 1 0
1658 277 1 -1.1128 12.330139188205205 6.247372218478399 6.293939385178071 0 3 0
2577 583 2 0.5564 9.628832350564519 3.1602198942963464 4.070782179628308 -6 0 0
2286 486 2 0.5564 8.7769100812342 4.669402683598249 5.511314965791945 -3 1 0
1219 130 2 0.5564 9.18621017671543 6.846768366371256 7.0002324429860465 2 1 0
1217 130 1 -1.1128 9.248549221783389 5.92906681787309 7.26513854344307 2 1 0
2576 583 1 -1.1128 10.221703643679932 2.5591016104175015 3.619793896054098 -6 0 0
2975 716 1 -1.1128 4.961199358443072 7.241964149942955 6.570696949584976 -2 0 0
2287 486 2 0.5564 9.450279442945067 5.16972630386876 4.251099181867524 -3 1 0
1881 351 2 0.5564 11.24667150738619 6.364038545611909 4.950792811325185 -4 -3 0
1127 100 1 -1.1128 9.084153331509235 -0.06930167408895624 5.943414276976885 -4 0 0
1588 253 2 0.5564 13.401640550318229 5.183679931587646 2.176887604794691 -1 -2 0
1586 253 1 -1.1128 13.281494228875589 6.0093832885183405 2.645943620229105 -1 -2 0
2846 673 1 -1.1128 13.15802701628096 1.9809065218258104 6.890712755988994 -1 1 0
2567 580 1 -1.1128 10.856630778659712 3.5790590740844297 1.0452231406640093 -1 -4 0
1503 225 2 0.5564 -0.5632014474340579 1.4462802204291207 0.19311277607392593 -1 -1 0
2526 566 2 0.5564 6.9019114404482815 3.1084721895593055 1.3382307684373 2 0 0
1880 351 1 -1.1128 10.900889097206115 6.3745602403613795 4.058293384164256 -4 -3 0
2920 697 2 0.5564 12.499778859187138 3.635914893303098 1.063116965005418 1 -2 0
432 2 4 0 7.36814 2.836 12.736959109302104 0 0 0
3157 776 2 0.5564 2.1866607409728402 6.447276328433604 1.1883197995759414 5 2 0
2568 580 2 0.5564 10.406659583757458 4.415673900188829 0.927596776525636 -1 -4 0
486 2 4 0 8.59617 4.963 12.736959109302104 0 0 0
1104 92 2 0.5564 11.11039011209675 5.955559972395895 9.809743283468931 -1 2 0
1444 205 2 0.5564 13.729258346961474 0.6902531132642274 1.7127726489945883 -3 0 0
442 2 4 0 13.5083 0.709 12.736959109302104 0 0 0
1393 188 2 0.5564 2.2551350811132655 7.54770990073896 7.0437846180409895 4 -1 0
2060 411 1 -1.1128 -0.6496260540898852 5.2705406050855785 9.297799179941071 -1 3 0
2919 697 2 0.5564 13.740744709023142 4.308978574970678 0.51641495811923 1 -2 0
2043 405 2 0.5564 -0.6610323774306661 7.009556542117333 9.07039536380249 4 -1 0
946 39 2 0.5564 4.0914282684491265 2.708824258700126 8.761727590684677 -4 -1 0
945 39 2 0.5564 3.4308266119890454 2.360448695523639 10.07859255560683 -4 -1 0
866 13 1 -1.1128 1.5767485505816285 -0.4295570498374869 6.45082070929054 3 -1 0
1345 172 2 0.5564 3.0969167814844605 -0.3573907812064068 1.8513431149978623 1 -1 0
2061 411 2 0.5564 0.05101338258419165 4.653569345800883 9.5091848481949 -1 3 0
2958 710 2 0.5564 3.709030227300741 4.568251602601 7.291950636470298 -2 -3 0
2330 501 1 -1.1128 -1.4740881293179195 3.627340898455257 2.5114741455494975 1 -2 0
1150 107 2 0.5564 -0.7232440573974038 -0.2393302540795626 9.02617810262276 -4 1 0
1264 145 2 0.5564 13.907063563746316 4.450566280543531 9.425666513946748 -4 0 0
1411 194 2 0.5564 -0.2901378282610565 1.8414776419777725 7.85948093265476 0 -4 0
1410 194 2 0.5564 0.7054598152275616 0.7310025255502866 7.599621226099968 0 -4 0
1481 218 1 -1.1128 4.654447834881885 6.854102936984244 9.33411313882007 3 4 0
1483 218 2 0.5564 4.119106824004441 6.16700052319364 8.937204908609203 3 4 0
1409 194 1 -1.1128 0.19563156890202005 1.1425701374759858 8.297419429861243 0 -4 0
2662 611 2 0.5564 1.2161573331462971 2.5914053159270627 9.09259181114002 2 4 0
482 2 4 0 6.14012 4.963 12.736959109302104 0 0 0
480 2 4 0 4.9121 7.09 12.736959109302104 0 0 0
483 2 4 0 6.14012 6.381 12.736959109302104 0 0 0
417 2 4 0 0 0 12.736959109302104 0 0 0
418 2 4 0 -1.22802 0.709 12.736959109302104 0 0 0
419 2 4 0 -1.22802 2.127 12.736959109302104 0 0 0
420 2 4 0 0 2.836 12.736959109302104 0 0 0
421 2 4 0 2.45605 0 12.736959109302104 0 0 0
422 2 4 0 1.22802 0.709 12.736959109302104 0 0 0
423 2 4 0 1.22802 2.127 12.736959109302104 0 0 0
424 2 4 0 2.45605 2.836 12.736959109302104 0 0 0
425 2 4 0 4.9121 0 12.736959109302104 0 0 0
426 2 4 0 3.68407 0.709 12.736959109302104 0 0 0
427 2 4 0 3.68407 2.127 12.736959109302104 0 0 0
428 2 4 0 4.9121 2.836 12.736959109302104 0 0 0
430 2 4 0 6.14012 0.709 12.736959109302104 0 0 0
431 2 4 0 6.14012 2.127 12.736959109302104 0 0 0
469 2 4 0 0 4.254 12.736959109302104 0 0 0
470 2 4 0 -1.22802 4.963 12.736959109302104 0 0 0
471 2 4 0 -1.22802 6.381 12.736959109302104 0 0 0
472 2 4 0 0 7.09 12.736959109302104 0 0 0
473 2 4 0 2.45605 4.254 12.736959109302104 0 0 0
474 2 4 0 1.22802 4.963 12.736959109302104 0 0 0
475 2 4 0 1.22802 6.381 12.736959109302104 0 0 0
476 2 4 0 2.45605 7.09 12.736959109302104 0 0 0
477 2 4 0 4.9121 4.254 12.736959109302104 0 0 0
478 2 4 0 3.68407 4.963 12.736959109302104 0 0 0
479 2 4 0 3.68407 6.381 12.736959109302104 0 0 0
2661 611 2 0.5564 0.9986576692307821 2.9784450221596934 10.539930814180627 2 4 0
2660 611 1 -1.1128 1.365441858449573 3.3014596326133745 9.716909774445838 2 4 0
1147 106 2 0.5564 9.603870390015048 0.03498819808534521 9.798527951191264 5 0 0
944 39 1 -1.1128 4.047456121176516 2.023555671609514 9.428590670416758 -4 -1 0
970 47 2 0.5564 3.8264453247884207 0.7234041594571199 5.4788720887424 1 4 0
867 13 2 0.5564 2.1091700723947993 0.32106872479550136 6.187533118928942 3 -1 0
2074 415 2 0.5564 12.214934336442276 0.6765292697591961 7.277045981644238 3 -5 0
921 31 2 0.5564 -1.7887176360397852 2.7071871646534515 5.642130395432892 -3 -3 0
433 2 4 0 9.82419 0 12.736959109302104 0 0 0
429 2 4 0 7.36814 0 12.736959109302104 0 0 0
2376 516 2 0.5564 9.95192809221113 0.451844849945368 3.2263576235797644 -1 2 0
1807 326 2 0.5564 7.039112712866554 4.585516469143126 9.67418980723182 1 2 0
490 2 4 0 11.0522 4.963 12.736959109302104 0 0 0
1806 326 2 0.5564 6.057298788145057 3.496900006958477 10.052146242131078 1 2 0
2247 473 2 0.5564 8.353055730572278 1.2493509926279487 8.703548851962665 -1 4 0
491 2 4 0 11.0522 6.381 12.736959109302104 0 0 0
1504 225 2 0.5564 -0.32029365846832036 2.158559525627963 1.5067139680560868 -1 -1 0
437 2 4 0 12.2802 0 12.736959109302104 0 0 0
1105 92 2 0.5564 10.816986422740317 7.402535424463542 9.474965437344668 -1 2 0
440 2 4 0 12.2802 2.836 12.736959109302104 0 0 0
489 2 4 0 12.2802 4.254 12.736959109302104 0 0 0
436 2 4 0 9.82419 2.836 12.736959109302104 0 0 0
2073 415 2 0.5564 11.841143806664245 -0.6721752971535466 7.854256652329862 3 -5 0
1262 145 1 -1.1128 13.42614331224981 3.625905126974134 9.355803531977067 -4 0 0
3205 792 2 0.5564 13.038372889784567 7.5734568690209265 9.5400992347239 1 3 0
438 2 4 0 11.0522 0.709 12.736959109302104 0 0 0
484 2 4 0 7.36814 7.09 12.736959109302104 0 0 0
2248 473 2 0.5564 8.057787413087548 2.4142114205558682 9.624314421976983 -1 4 0
485 2 4 0 9.82419 4.254 12.736959109302104 0 0 0
2847 673 2 0.5564 13.196833121164817 2.5526536455511106 7.657415717520059 -1 1 0
1805 326 1 -1.1128 6.745019531359778 3.7103623653664504 9.421507828622495 1 2 0
434 2 4 0 8.59617 0.709 12.736959109302104 0 0 0
435 2 4 0 8.59617 2.127 12.736959109302104 0 0 0
1885 352 2 0.5564 10.115022871615288 3.21467612184855 9.135753316865756 -4 0 0
439 2 4 0 11.0522 2.127 12.736959109302104 0 0 0
495 2 4 0 13.5083 6.381 12.736959109302104 0 0 0
443 2 4 0 13.5083 2.127 12.736959109302104 0 0 0
494 2 4 0 13.5083 4.963 12.736959109302104 0 0 0
481 2 4 0 7.36814 4.254 12.736959109302104 0 0 0
487 2 4 0 8.59617 6.381 12.736959109302104 0 0 0
1884 352 2 0.5564 11.530346194949308 3.668910497807052 9.42285416871465 -4 0 0
1103 92 1 -1.1128 11.459886710484831 6.707895462930255 9.332170596568696 -1 2 0
492 2 4 0 12.2802 7.09 12.736959109302104 0 0 0
488 2 4 0 9.82419 7.09 12.736959109302104 0 0 0
1883 352 1 -1.1128 10.666335324886335 3.9962873736948747 9.172769302708614 -4 0 0
872 15 1 -1.1128 4.530749480262539 -0.6326988282250674 4.5734355143045695 -2 3 0
874 15 2 0.5564 5.425320108913928 -0.39714007885427294 4.819381363311293 -2 3 0
2375 516 1 -1.1128 9.718029832852956 -0.44976498568469053 3.4468632066777194 -1 2 0
2977 716 2 0.5564 4.024224005063563 7.2714138935061206 6.377183130699796 -2 0 0
1066 79 2 0.5564 9.357920343376092 6.893501111207774 0.49668592060428074 3 -1 0
1064 79 1 -1.1128 10.031830343718738 6.292109290521725 0.17981397154569567 3 -1 0
1343 172 1 -1.1128 4.0350026119444165 -0.535789179493221 1.7849998364722648 1 -1 0
2918 697 1 -1.1128 13.443362647298233 3.71331638800024 1.2041519791632473 1 -2 0
1129 100 2 0.5564 9.446907333082468 -0.32709645528578346 5.095953446147842 -4 0 0