LAMMPS data file via write_data, version 2 Aug 2023, timestep = 7000000, units = real

5032 atoms
4 atom types
2800 bonds
1 bond types
1400 angles
1 angle types
0 impropers
1 improper types

-1.8420299999999998 30.08661 xlo xhi
-0.709 33.323 ylo yhi
-150 150 zlo zhi

Masses

1 15.9994
2 1.00794
3 12.0107
4 12.0107

Pair Coeffs # lj/cut/tip4p/long

1 0.1852 3.1589
2 0 0
3 0.0859 3.3997
4 0.0859 3.3997

Bond Coeffs # harmonic

1 5000 0.9572

Angle Coeffs # harmonic

1 500 104.52

Atoms # full

1 1 3 0 0 0 -19.086524130372066 0 0 0
2 1 3 0 -1.22802 0.709 -19.086524130372066 0 0 0
3 1 3 0 -1.22802 2.127 -19.086524130372066 0 0 0
4 1 3 0 0 2.836 -19.086524130372066 0 0 0
5 1 3 0 2.45605 0 -19.086524130372066 0 0 0
6 1 3 0 1.22802 0.709 -19.086524130372066 0 0 0
7 1 3 0 1.22802 2.127 -19.086524130372066 0 0 0
8 1 3 0 2.45605 2.836 -19.086524130372066 0 0 0
9 1 3 0 4.9121 0 -19.086524130372066 0 0 0
10 1 3 0 3.68407 0.709 -19.086524130372066 0 0 0
11 1 3 0 3.68407 2.127 -19.086524130372066 0 0 0
12 1 3 0 4.9121 2.836 -19.086524130372066 0 0 0
14 1 3 0 6.14012 0.709 -19.086524130372066 0 0 0
15 1 3 0 6.14012 2.127 -19.086524130372066 0 0 0
53 1 3 0 0 4.254 -19.086524130372066 0 0 0
54 1 3 0 -1.22802 4.963 -19.086524130372066 0 0 0
55 1 3 0 -1.22802 6.381 -19.086524130372066 0 0 0
56 1 3 0 0 7.09 -19.086524130372066 0 0 0
57 1 3 0 2.45605 4.254 -19.086524130372066 0 0 0
58 1 3 0 1.22802 4.963 -19.086524130372066 0 0 0
59 1 3 0 1.22802 6.381 -19.086524130372066 0 0 0
60 1 3 0 2.45605 7.09 -19.086524130372066 0 0 0
61 1 3 0 4.9121 4.254 -19.086524130372066 0 0 0
62 1 3 0 3.68407 4.963 -19.086524130372066 0 0 0
63 1 3 0 3.68407 6.381 -19.086524130372066 0 0 0
64 1 3 0 4.9121 7.09 -19.086524130372066 0 0 0
66 1 3 0 6.14012 4.963 -19.086524130372066 0 0 0
67 1 3 0 6.14012 6.381 -19.086524130372066 0 0 0
3465 879 2 0.5564 0.7732648997824082 -0.16563134275280947 -15.611255147755092 2 -2 0
3464 879 1 -1.1128 -0.06543282773402159 -0.13670487630772354 -15.150840836148284 2 -2 0
4182 1118 2 0.5564 -1.3453470087550508 2.58717323350326 -16.553922844423617 -1 1 0
4092 1088 2 0.5564 1.2275236152931015 0.0034602852001520135 -3.804075834439956 1 -3 0
4384 1185 2 0.5564 -0.07904038598370534 4.535501427612602 -0.16075987194915217 7 -1 0
2033 402 1 -1.1128 -1.4663746572490015 5.307077103643143 -7.295469240570097 -1 -5 0
2900 691 1 -1.1128 4.505837035340702 1.6427085639533703 -15.850350960746937 2 2 0
2901 691 2 0.5564 5.203900404685046 1.2182446924611134 -16.349119097120397 2 2 0
2902 691 2 0.5564 3.7387428847028694 1.0877426079285604 -15.991102201034881 2 2 0
974 49 1 -1.1128 13.096282571363993 2.567603853169933 -6.311027254600575 1 1 0
1952 375 1 -1.1128 11.185500485005214 0.21445027582867182 -5.561738210325892 1 4 0
1172 115 1 -1.1128 13.092412199510811 2.738042518430487 -1.7930762675593948 3 4 0
2344 505 2 0.5564 13.140522276288506 3.987335715132817 -9.460353723465879 -1 2 0
1771 314 2 0.5564 9.93846694542264 7.339270459057536 -11.291072546158818 3 1 0
4712 1295 1 -1.1128 3.132397282423388 0.2009664538665976 -5.188700118863037 0 1 0
4005 1059 2 0.5564 11.944014012647068 1.6283249430891247 -0.8867027188913675 5 2 0
4633 1268 2 0.5564 6.353010303313161 7.112549339239422 -16.048954438018278 0 -3 0
1663 278 2 0.5564 4.668451454953001 -0.5227850070984454 -9.209315649101937 -4 3 0
13 1 3 0 7.36814 0 -19.086524130372066 0 0 0
16 1 3 0 7.36814 2.836 -19.086524130372066 0 0 0
17 1 3 0 9.82419 0 -19.086524130372066 0 0 0
18 1 3 0 8.59617 0.709 -19.086524130372066 0 0 0
19 1 3 0 8.59617 2.127 -19.086524130372066 0 0 0
20 1 3 0 9.82419 2.836 -19.086524130372066 0 0 0
21 1 3 0 12.2802 0 -19.086524130372066 0 0 0
22 1 3 0 11.0522 0.709 -19.086524130372066 0 0 0
23 1 3 0 11.0522 2.127 -19.086524130372066 0 0 0
24 1 3 0 12.2802 2.836 -19.086524130372066 0 0 0
26 1 3 0 13.5083 0.709 -19.086524130372066 0 0 0
27 1 3 0 13.5083 2.127 -19.086524130372066 0 0 0
65 1 3 0 7.36814 4.254 -19.086524130372066 0 0 0
68 1 3 0 7.36814 7.09 -19.086524130372066 0 0 0
69 1 3 0 9.82419 4.254 -19.086524130372066 0 0 0
70 1 3 0 8.59617 4.963 -19.086524130372066 0 0 0
71 1 3 0 8.59617 6.381 -19.086524130372066 0 0 0
72 1 3 0 9.82419 7.09 -19.086524130372066 0 0 0
73 1 3 0 12.2802 4.254 -19.086524130372066 0 0 0
74 1 3 0 11.0522 4.963 -19.086524130372066 0 0 0
75 1 3 0 11.0522 6.381 -19.086524130372066 0 0 0
76 1 3 0 12.2802 7.09 -19.086524130372066 0 0 0
78 1 3 0 13.5083 4.963 -19.086524130372066 0 0 0
79 1 3 0 13.5083 6.381 -19.086524130372066 0 0 0
2304 492 2 0.5564 8.249391378155968 6.174052818535641 -15.601962264903705 -1 4 0
2305 492 2 0.5564 8.05269873435911 4.754650726848522 -16.090326418299796 -1 4 0
1953 375 2 0.5564 10.315883309863706 -0.0760959497093355 -5.8366583212315355 1 4 0
3130 767 2 0.5564 12.154036734909583 1.3225459554824643 -15.73026803499321 4 0 0
4382 1185 1 -1.1128 0.5716059288011979 3.8679615646774557 -0.3782058589496412 7 -1 0
896 23 1 -1.1128 9.726309162838099 7.01037828425662 -15.077396531740971 1 -4 0
898 23 2 0.5564 10.576779493805368 6.772510849355392 -14.70813466352349 1 -4 0
3538 903 2 0.5564 12.118136447773033 6.950686364666054 -13.647011667605577 -2 -2 0
3439 870 2 0.5564 11.704657840498628 2.991292837307763 -14.391587327079106 1 4 0
2303 492 1 -1.1128 7.584311163704181 5.576436799145543 -15.943655554159283 -1 4 0
3128 767 1 -1.1128 11.225216722332382 1.502932189034335 -15.585392300827152 4 0 0
1540 237 2 0.5564 8.62867100060873 2.430196310837688 -16.693369139562492 0 -2 0
1539 237 2 0.5564 9.850068844927401 2.650365593821959 -15.82641511231123 0 -2 0
1538 237 1 -1.1128 8.997511840271107 3.0278376069290514 -16.042973872799532 0 -2 0
2660 611 1 -1.1128 14.095157643059572 1.3849224449612898 -15.615513773266455 0 3 0
3536 903 1 -1.1128 12.25527602622543 6.375298919068681 -14.399579796208258 -2 -2 0
3537 903 2 0.5564 11.994238966548277 5.50817604220787 -14.08942418597697 -2 -2 0
976 49 2 0.5564 13.104191229560726 2.0290465297478293 -7.10230774619438 1 1 0
4093 1088 2 0.5564 0.9468743202034584 0.48308471576050693 -2.395852891215507 1 -3 0
2814 662 2 0.5564 2.8022047288482086 7.342537478483167 -13.3295137511668 1 -1 0
4578 1250 2 0.5564 8.123825830391741 3.965740217170128 -1.6118874495204696 0 0 0
4334 1169 1 -1.1128 9.397390606659938 3.580110502929251 -0.08310012884167764 0 2 0
4006 1059 2 0.5564 10.567884000690114 1.8664137304444002 -0.30234322118374335 5 2 0
3466 879 2 0.5564 -0.1654167184923362 0.7792782693708991 -14.89158787389028 2 -2 0
2368 513 2 0.5564 0.7472984740840999 5.968207222878039 -14.743562117344771 3 1 0
952 41 2 0.5564 5.0916492693232405 3.3128958547483784 -15.219684964283555 0 1 0
2367 513 2 0.5564 -0.5755357705069392 5.232048849167074 -14.752198997308584 3 1 0
2308 493 2 0.5564 -0.30748039240891073 3.0130294585759985 -14.390185299485754 2 -1 0
951 41 2 0.5564 6.109040950141737 4.407233748859724 -15.463082455080931 0 1 0
950 41 1 -1.1128 5.385383075009014 4.1609838828837304 -14.886963473415397 0 1 0
2306 493 1 -1.1128 -0.784254787055173 2.2920228380623073 -13.979005296794103 2 -1 0
2366 513 1 -1.1128 0.33796605723195056 5.144006012636086 -14.480177847553872 3 1 0
2307 493 2 0.5564 -1.7021920972757099 2.561278930994765 -14.012565652506439 2 -1 0
5011 1394 2 0.5564 6.605161424578519 3.3581400562503547 -14.025339931542144 1 1 0
3923 1032 1 -1.1128 -0.3917051523242121 2.425592732040765 -11.041732816032345 -2 0 0
3924 1032 2 0.5564 -0.4663006865940563 2.4969002868078753 -11.993354836126475 -2 0 0
1334 169 1 -1.1128 3.660186070852881 1.810386422657548 -7.245939142874388 4 -2 0
3925 1032 2 0.5564 -1.1715333433146806 1.9384204740108815 -10.775716601728307 -2 0 0
967 46 2 0.5564 2.0067262576544302 4.5609101004230626 -9.668092096571916 2 1 0
2636 603 1 -1.1128 3.331785253594415 2.6452319629849876 -11.516226609398071 4 0 0
966 46 2 0.5564 3.4033494903967574 4.373872388903286 -10.221584641543403 2 1 0
965 46 1 -1.1128 2.899023741976874 4.900986971721908 -9.601876203007668 2 1 0
2637 603 2 0.5564 2.8412450034921366 2.0926419257224236 -10.907746939846131 4 0 0
2638 603 2 0.5564 3.0417958398809524 2.363126055974611 -12.383724786633286 4 0 0
1336 169 2 0.5564 3.052379556294605 1.5949740204313883 -7.95333383986003 4 -2 0
3019 730 2 0.5564 -0.3260422304263968 3.706292025534084 -9.776288575774872 -1 -1 0
3017 730 1 -1.1128 0.08002589662139933 4.278103026556787 -9.124847678844283 -1 -1 0
2201 458 1 -1.1128 2.73959891613599 -0.6837356630005229 -15.73758417341946 2 -1 0
3124 765 2 0.5564 0.29328693440429937 5.745005898449102 -10.630540849749643 1 -2 0
4563 1245 2 0.5564 1.5152012619231001 0.26049339888448636 -9.194833151634699 4 3 0
4564 1245 2 0.5564 1.0641114675281023 1.6788145237161474 -9.471922194694605 4 3 0
4562 1245 1 -1.1128 1.7932570189540709 1.172793174003925 -9.113424857328244 4 3 0
3123 765 2 0.5564 -0.06257380498391585 5.734796184558758 -12.101985457835804 1 -2 0
2417 530 1 -1.1128 2.7107070566300275 0.505569598444412 -13.090706022609687 -1 -2 0
3681 951 2 0.5564 14.107371658352232 6.404565021773076 -15.033132353720541 2 2 0
3619 930 2 0.5564 11.017708187077435 6.676878519724616 -1.4856796048062308 -1 -3 0
4224 1132 2 0.5564 12.683755746190338 6.948318718138874 -4.691864195032293 2 1 0
4187 1120 1 -1.1128 4.398925460092597 6.889405951722708 -13.62555492451586 -1 -1 0
4188 1120 2 0.5564 4.513225777618819 5.973291813408531 -13.878347549186444 -1 -1 0
4189 1120 2 0.5564 4.920948857900357 7.380383942198319 -14.26011525843425 -1 -1 0
1093 88 2 0.5564 6.409442990910878 1.3081990217052855 -3.1682894519232905 1 -1 0
4106 1093 1 -1.1128 5.465308269210413 5.617122946011907 -2.171232712591423 -1 1 0
3122 765 1 -1.1128 0.32074570971207683 6.285991843662788 -11.419723893397606 1 -2 0
897 23 2 0.5564 9.31333853513409 7.548277251759637 -14.401855686461676 1 -4 0
4050 1074 2 0.5564 9.141148196921609 6.656788097795737 -0.04613672106924588 0 -2 0
1633 268 2 0.5564 5.75716773240815 6.870301421223972 -12.27784986880175 0 -1 0
2438 537 1 -1.1128 13.4563803339826 0.9209024888174152 -8.582491060813728 -1 -1 0
1631 268 1 -1.1128 6.604476852220294 6.805685849186715 -11.83725530296971 0 -1 0
1632 268 2 0.5564 6.388249484181626 6.768198165066282 -10.905551603174777 0 -1 0
5010 1394 2 0.5564 8.033285510449364 2.861535781008074 -14.101132022093783 1 1 0
3542 905 1 -1.1128 8.072684642146543 6.658673096328187 -6.387334065052454 0 2 0
1341 171 2 0.5564 12.346855368734365 4.407014966931218 -3.9726418854582066 2 -4 0
3438 870 2 0.5564 11.140174302989017 3.640995729643787 -13.146143057768104 1 4 0
3437 870 1 -1.1128 11.771693295352438 3.7791124231230055 -13.852070928134266 1 4 0
1961 378 1 -1.1128 3.8819953089275474 -0.6909320326504885 -0.7753690368626538 3 1 0
5009 1394 1 -1.1128 7.232701576759128 2.7875212403676857 -13.581690457723766 1 1 0
4900 1357 2 0.5564 6.137957483348141 3.6471732851142984 -8.067785729931853 4 0 0
3737 970 1 -1.1128 -1.3497232394000436 1.9182910884978415 -6.12103932530118 -3 -3 0
4621 1264 2 0.5564 11.208267528138702 3.4820715860313953 -10.851426996364895 -1 -3 0
2342 505 1 -1.1128 12.508760931346664 3.311815766417018 -9.706894911891084 -1 2 0
2338 503 2 0.5564 8.926260476319603 0.32116321707969187 -11.3432398809866 1 -1 0
4023 1065 2 0.5564 12.66708344258354 2.5440617045686507 -13.118007165924677 -2 1 0
2173 448 2 0.5564 9.15116534058434 4.771535484847011 -11.497349094582942 5 2 0
4620 1264 2 0.5564 10.070045779827877 2.530845288961169 -11.153939749850013 -1 -3 0
4619 1264 1 -1.1128 10.495379580166265 3.327502779986474 -11.471209722061007 -1 -3 0
1379 184 1 -1.1128 7.355396850042063 0.21201370540939776 -12.681883286077708 5 -2 0
2337 503 2 0.5564 9.861194514338292 0.09033194652094614 -10.175118049426551 1 -1 0
2336 503 1 -1.1128 9.63539756645939 0.7319143047636808 -10.84863035344833 1 -1 0
4489 1220 2 0.5564 8.094280983903595 4.427780355122376 -8.681880033237185 2 0 0
2314 495 2 0.5564 9.7213283514321 -0.4498933006918975 -3.5455095301235877 -4 -2 0
2172 448 2 0.5564 8.232632515686714 5.938160774445123 -11.792614872242993 5 2 0
2171 448 1 -1.1128 9.072209498378529 5.71922831661636 -11.388370957595196 5 2 0
4488 1220 2 0.5564 8.838003955709233 5.632481344098138 -9.218045947103574 2 0 0
2661 611 2 0.5564 13.92572542203836 1.3269616507749356 -14.675213084443945 0 3 0
3543 905 2 0.5564 8.558136114862856 6.328453488321866 -5.631342432496538 0 2 0
3086 753 1 -1.1128 6.16355120663812 3.3579246501746582 -11.032224409615779 1 1 0
3088 753 2 0.5564 6.7393359233462595 3.2473154687743633 -11.78884208919873 1 1 0
1380 184 2 0.5564 7.3071180470736765 1.1056213394265335 -13.021537824735548 5 -2 0
3087 753 2 0.5564 5.288609939798192 3.1584783463489026 -11.365289008864146 1 1 0
1508 227 1 -1.1128 11.62343303205162 6.091535044283421 -7.444798152828405 -4 3 0
1509 227 2 0.5564 11.152854044141629 6.4464483781514605 -8.199002319164213 -4 3 0
4487 1220 1 -1.1128 8.732360761335196 5.096196895225967 -8.432253023365943 2 0 0
3129 767 2 0.5564 10.813530706756024 0.6390617648246546 -15.563568566464653 4 0 0
975 49 2 0.5564 13.744797486436363 2.1601272804751996 -5.736900766238661 1 1 0
1342 171 2 0.5564 12.099816038945121 3.220770201595173 -4.880215338521873 2 -4 0
853 8 2 0.5564 4.314767260232868 6.386570034159474 -9.547717032990066 -4 5 0
2813 662 1 -1.1128 1.895945846725517 7.647252345100287 -13.283964000395272 1 -1 0
1092 88 2 0.5564 7.631431891917693 1.2120683635297522 -4.056770656780507 1 -1 0
2815 662 2 0.5564 1.5206553432725993 7.173962987774314 -12.541410547105324 1 -1 0
3566 913 1 -1.1128 13.782035671458242 5.5647967802316005 -4.1066892936684605 0 3 0
3617 930 1 -1.1128 11.30691867236707 6.791475815214088 -2.3909196662132595 -1 -3 0
2343 505 2 0.5564 12.82815197202682 2.517088597141168 -9.279540136718444 -1 2 0
2439 537 2 0.5564 12.705119720731314 0.33951780920945174 -8.700096512420393 -1 -1 0
2419 530 2 0.5564 3.5361127886299135 0.06532485827927983 -12.887922735845061 -1 -2 0
1174 115 2 0.5564 13.51368191772276 1.9374597968702925 -2.105855800876716 3 4 0
1335 169 2 0.5564 4.043255535660146 2.6483114455477814 -7.505502042493655 4 -2 0
2547 573 2 0.5564 0.9966203354876861 3.9947788208760366 -7.233844325226927 -5 2 0
4713 1295 2 0.5564 3.467546264061092 0.7738022460258164 -5.878460884456 0 1 0
4383 1185 2 0.5564 1.3143208140037765 4.361213760605053 -0.7265016189429849 7 -1 0
3018 730 2 0.5564 -0.6482999227587088 4.576388775309717 -8.580047730388525 -1 -1 0
2418 530 2 0.5564 2.042057830998216 -0.02906691917593042 -12.662567084280456 -1 -2 0
2546 573 1 -1.1128 1.1983036838023813 3.4348831259682915 -6.484129191926302 -5 2 0
2548 573 2 0.5564 2.0859885872813155 3.1188418947448495 -6.65254712019501 -5 2 0
2911 694 2 0.5564 6.8004397472506 0.08788333901275111 -7.471383480637671 9 0 0
4490 1221 1 -1.1128 1.8772547540701474 7.1318074437984365 -6.478533989158073 6 -2 0
3928 1033 2 0.5564 2.232159270359974 5.950912069094999 -2.203671674396064 0 -1 0
1297 156 2 0.5564 -0.20136205816608008 5.697324735160501 -4.442353519138873 0 -1 0
4344 1172 2 0.5564 4.795080783900824 6.894339994480132 -5.801461669265801 1 0 0
1296 156 2 0.5564 -1.4055272659750213 6.466864534412693 -4.94204635612272 0 -1 0
1295 156 1 -1.1128 -0.45132360647407194 6.428494692782597 -5.007284059708332 0 -1 0
860 11 1 -1.1128 -1.6240706452343356 5.782590251215905 -0.19968293618506514 0 0 0
3972 1048 2 0.5564 0.9043667944916839 3.640813487393159 -4.697614169573818 1 3 0
4091 1088 1 -1.1128 0.6646755084272756 -0.15914276083647502 -3.047113297277197 1 -3 0
4492 1221 2 0.5564 1.5306562746862902 7.501369242767037 -7.2906479083902855 6 -2 0
3052 741 2 0.5564 -0.3384748029800833 0.8898055422773993 -0.45496618027699287 -1 5 0
3050 741 1 -1.1128 0.5632638089983888 1.188394456769773 -0.573050726070837 -1 5 0
3051 741 2 0.5564 0.4924095808849329 2.1394840523225396 -0.6545373349684076 -1 5 0
3971 1048 1 -1.1128 0.5086343769857243 4.134062069270736 -3.9790485554828208 1 3 0
3973 1048 2 0.5564 -0.16624212869491625 3.5512821396456946 -3.6309942427419197 1 3 0
4491 1221 2 0.5564 1.1197611697085348 7.0808628291444755 -5.895572541472074 6 -2 0
4392 1188 2 0.5564 13.64864208161089 -0.03336070851700135 -13.086820361477582 -5 4 0
2947 706 2 0.5564 2.0290756056181594 7.423662715387072 -1.1511705115233422 4 -1 0
4281 1151 2 0.5564 4.399391312046161 1.7983276068472445 -2.519430820857107 -3 5 0
3738 970 2 0.5564 -1.3156762018133057 0.9746852620833153 -6.278140607666131 -3 -3 0
4280 1151 1 -1.1128 4.559176747823363 0.9778645955684314 -2.985843193038214 -3 5 0
4282 1151 2 0.5564 4.340564656423133 0.29488498232738763 -2.3518250315505465 -3 5 0
3926 1033 1 -1.1128 2.3916389719132636 5.007726447740779 -2.2383529188386277 0 -1 0
3927 1033 2 0.5564 1.7345904545285533 4.675569607691045 -2.8500678500044287 0 -1 0
3306 826 2 0.5564 4.720990309289544 3.5979210527469014 -1.3264201627098604 1 -1 0
4345 1172 2 0.5564 3.3876854522460893 6.346754574926338 -5.907669474139385 1 0 0
3307 826 2 0.5564 3.240419252109535 3.5120600459184486 -1.630446936618135 1 -1 0
4343 1172 1 -1.1128 4.283252508102606 6.0941689932973295 -5.6831890931946685 1 0 0
4252 1141 2 0.5564 4.020677545815694 4.56340754511942 -8.1359053945713 -4 -1 0
2945 706 1 -1.1128 2.3913328042740165 7.628021995794523 -2.0132829157591234 4 -1 0
4250 1141 1 -1.1128 4.790859120281138 4.248705087898777 -7.6626063317135875 -4 -1 0
4714 1295 2 0.5564 3.720292223314319 0.34814198871076235 -4.44778569260039 0 1 0
4251 1141 2 0.5564 4.79883635529902 4.757548942596254 -6.851899870777068 -4 -1 0
3305 826 1 -1.1128 3.968955153968781 3.0087372098006666 -1.2669449810839448 1 -1 0
851 8 1 -1.1128 5.129778292757258 6.882091643044419 -9.628004847523345 -4 5 0
2910 694 2 0.5564 5.536040666100304 0.9073430882740113 -7.618603385965526 9 0 0
4004 1059 1 -1.1128 11.168065626472087 1.168827245422552 -0.5657619594709818 5 2 0
1971 381 2 0.5564 8.28702500885941 1.6210846235958158 -0.5758517031028056 -6 -1 0
1045 72 2 0.5564 6.741627073198709 6.609584408245044 -0.6787189686926228 -1 -1 0
2245 472 2 0.5564 11.113710166616732 3.6035125061938214 -6.883312854281354 1 2 0
2313 495 2 0.5564 10.056244883899884 0.03138772059475671 -2.149768181446029 -4 -2 0
2203 458 2 0.5564 2.699028153160591 -0.23166978541552297 -14.89483971843981 2 -1 0
1972 381 2 0.5564 7.466046243918195 0.5134328851734825 -1.2011479271309997 -6 -1 0
1954 375 2 0.5564 11.376330458713175 0.9655472122693518 -6.123583001816045 1 4 0
1970 381 1 -1.1128 7.775730251298992 0.8420025032633386 -0.3571281236754546 -6 -1 0
4223 1132 1 -1.1128 12.087147604082734 7.5997147619036 -5.060615943791984 2 1 0
4898 1357 1 -1.1128 6.957909610900963 3.27515153353355 -8.392610891827303 4 0 0
2243 472 1 -1.1128 10.289942076470034 3.1232145701123297 -6.966687511361948 1 2 0
2244 472 2 0.5564 9.73415771648184 3.690866195010597 -7.500643382425481 1 2 0
3249 807 2 0.5564 9.142692440838545 1.9543432331465984 -6.076895103024258 0 3 0
1091 88 1 -1.1128 7.339501874421534 1.53183692118407 -3.203097517896568 1 -1 0
4899 1357 2 0.5564 6.790170339751939 3.0957541379631066 -9.31776589770441 4 0 0
3544 905 2 0.5564 8.419755502145174 6.164416591554467 -7.129953886684166 0 2 0
3250 807 2 0.5564 7.678987537155356 2.209860667579979 -6.36702038549877 0 3 0
4108 1093 2 0.5564 5.02052155219518 5.9612973065945125 -2.9457904339091736 -1 1 0
1340 171 1 -1.1128 11.697690385982087 3.734852123902587 -4.180040151162975 2 -4 0
1510 227 2 0.5564 11.643127108106299 6.811114993033621 -6.813886559943821 -4 3 0
1381 184 2 0.5564 6.44481743588506 -0.08100715582723986 -12.647044065191041 5 -2 0
2909 694 1 -1.1128 5.847004335525925 0.009406889976920949 -7.503523807457813 9 0 0
1173 115 2 0.5564 12.428072858378654 2.9335683684169744 -2.4538758922167108 3 4 0
2603 592 1 -1.1128 9.529920339118764 5.557785253990238 -4.2393001664469185 -2 6 0
2035 402 2 0.5564 -1.0377536750889977 5.531987331003117 -6.469681729791589 -1 -5 0
4022 1065 1 -1.1128 13.078243078992783 1.728662418544887 -12.831121564514973 -2 1 0
3618 930 2 0.5564 10.579047928572706 6.463156874418035 -2.918786544364099 -1 -3 0
4107 1093 2 0.5564 6.296887715707544 5.278292216035208 -2.502748343211556 -1 1 0
3739 970 2 0.5564 -0.6285206043893125 2.274179684327935 -6.6401166962041716 -3 -3 0
2604 592 2 0.5564 8.974139627041808 5.23964108058992 -3.5278745862187724 -2 6 0
3208 793 2 0.5564 13.318580833965358 5.370252512241608 -8.371601169902087 1 -2 0
4024 1065 2 0.5564 13.969633841294169 1.981099785832525 -12.590437757224347 -2 1 0
2605 592 2 0.5564 10.219529072107715 4.898657921587327 -4.318212499115881 -2 6 0
4577 1250 1 -1.1128 7.752423128476873 4.307489708382343 -2.425214070743043 0 0 0
3248 807 1 -1.1128 8.26636647696055 1.6062968874255539 -5.912127086200494 0 3 0
4579 1250 2 0.5564 7.511979279368982 3.5276736393076256 -2.925521769438771 0 0 0
3213 795 2 0.5564 12.770584831038537 7.7221279030027645 -2.1250085720159664 -1 0 0
4614 1262 2 0.5564 13.91480758050977 3.662403451740006 -0.11019003933131263 0 2 0
4335 1169 2 0.5564 9.805070661061919 4.440662785189294 -0.18045976765647292 0 2 0
852 8 2 0.5564 5.56244327808691 6.77122172964516 -8.781399588402135 -4 5 0
4513 1228 2 0.5564 5.671137344626929 -0.560592581922629 -5.711833461749332 -4 -2 0
2424 532 2 0.5564 6.666672704605981 7.7322745419301935 -6.224120638801025 2 -2 0
2775 649 2 0.5564 11.110244595035356 -0.5255315886254684 -11.892929779307108 4 1 0
1617 263 2 0.5564 -0.9797217019423665 7.768595800505426 -7.957635797897824 -3 1 0
2926 699 2 0.5564 3.3349053449533983 3.066797541751563 2.598105839545498 2 -2 0
1312 161 2 0.5564 1.163570490494177 1.6778013525978253 5.530431333979191 0 2 0
1310 161 1 -1.1128 0.897261505639102 1.105537690098134 4.810829342464207 0 2 0
1311 161 2 0.5564 1.3281491501458909 0.27105161462436794 4.995766196366186 0 2 0
2924 699 1 -1.1128 2.882793629019573 3.540800908262643 3.2960679904710104 2 -2 0
1612 261 2 0.5564 3.2505847185168064 0.9645464729388696 3.3717125562879717 -1 1 0
2169 447 2 0.5564 -0.26835538819497057 4.398344353447329 2.7663350818757233 0 1 0
1611 261 2 0.5564 3.258497009729845 -0.30258130800899535 2.5433306445812964 -1 1 0
3256 809 2 0.5564 -0.8673079615175429 1.4489179857200032 7.589272643991143 5 2 0
2056 409 2 0.5564 3.7315668225274297 3.25027828721498 4.837839420144876 -4 1 0
2054 409 1 -1.1128 4.1338371315967555 2.8540240679902453 5.61074892792804 -4 1 0
2055 409 2 0.5564 4.963321124061684 3.3201491434375328 5.715218272949259 -4 1 0
2741 638 1 -1.1128 0.24899619427687134 5.166451664727671 6.085278638251557 0 2 0
2740 637 2 0.5564 12.881111699970655 -0.03046197759104736 12.948318249310589 1 -2 0
2743 638 2 0.5564 0.762520649270928 4.36198131520281 6.0120843509909845 0 2 0
3706 959 2 0.5564 1.699820669116924 3.589922087425698 7.487426260340985 4 -1 0
3704 959 1 -1.1128 1.6360749597212998 3.001947431263028 6.7347934877339 4 -1 0
1876 349 2 0.5564 4.6202172576257 1.1029238048226417 8.02312655657569 -1 0 0
3705 959 2 0.5564 2.5441641017006433 2.8406466313355323 6.478681158666607 4 -1 0
3548 907 1 -1.1128 12.798131120373496 0.1650361238005287 6.353238227639346 1 0 0
1610 261 1 -1.1128 3.827619926579694 0.2668508480759416 3.0610950570081057 -1 1 0
2742 638 2 0.5564 -0.536783626565184 4.997708660179188 5.5653671657500015 0 2 0
3550 907 2 0.5564 13.348437763474612 -0.5861624629427777 6.131648110487044 1 0 0
2168 447 1 -1.1128 0.15153987344078154 3.563632106632045 2.558542077532305 0 1 0
1596 256 2 0.5564 1.5594070339298864 0.40490157345979866 11.930145276190288 3 0 0
2925 699 2 0.5564 1.9526915378210503 3.415233777706225 3.1079842417825128 2 -2 0
3600 924 2 0.5564 5.3744938645944815 1.9495533165612928 1.3593226139901256 2 -2 0
1875 349 2 0.5564 4.236329012089285 1.044616012568052 6.559868503895941 -1 0 0
2038 403 2 0.5564 -0.757347993331135 2.085190616012601 2.5120973550336885 3 1 0
3673 948 2 0.5564 6.633849933527083 0.029428333865270266 1.2838971139031772 3 2 0
3254 809 1 -1.1128 -0.9841237484725172 1.165170185473669 8.495956127397545 5 2 0
3135 769 2 0.5564 1.3246241050110836 0.2311386680879307 0.7927054700001933 -3 0 0
4765 1312 2 0.5564 -1.6870841254226485 -0.2674396460409297 12.89694257980044 4 -1 0
2036 403 1 -1.1128 -1.5412309917638005 1.5378892036834668 2.464948308408065 3 1 0
3255 809 2 0.5564 -0.33928442778697504 0.4677087847979724 8.614121399359144 5 2 0
1987 386 2 0.5564 13.826216033818389 5.618833652999478 3.064867025197988 1 5 0
5022 1398 2 0.5564 -1.0434741980699596 1.4475840215964093 5.263183618976665 2 3 0
3601 924 2 0.5564 4.292461632597494 2.4985556943493763 0.4539477179491631 2 -2 0
3388 853 2 0.5564 3.731248890736377 5.129031799537801 3.0835495687718546 -1 2 0
3829 1000 2 0.5564 5.862322375660692 3.5527662647987928 2.2526842258346997 -3 4 0
2989 720 2 0.5564 11.266034132051873 7.340520523983955 19.827575999732467 2 2 0
3134 769 1 -1.1128 1.7458551203086734 -0.5836093263357773 1.066532877257871 -3 0 0
3696 956 2 0.5564 1.3464066187053445 5.580947656005228 14.379057701810513 2 3 0
4587 1253 2 0.5564 -0.6876398092315984 6.8422106024081275 9.772825756758325 3 1 0
2170 447 2 0.5564 0.34390278550308656 3.6182250282028683 1.622460021208167 0 1 0
495 2 4 0 13.5083 6.381 22.709149600932808 0 0 0
2699 624 1 -1.1128 6.822005862914087 6.561720414836261 5.631604130475671 -1 3 0
921 31 2 0.5564 11.631778954500996 0.9379525112885267 16.623760970717044 -3 2 0
3817 996 2 0.5564 6.926324757021023 4.005385148579187 4.48361581458428 2 -1 0
4686 1286 2 0.5564 2.607281352233798 7.39780343783945 10.751675565301257 -3 -2 0
4814 1329 1 -1.1128 13.922628046124089 6.259644339605135 12.886602698352817 1 2 0
2700 624 2 0.5564 6.648998883892336 5.738103827747689 6.087626543025337 -1 3 0
3204 792 2 0.5564 1.8391241457854228 7.3545244090442 4.74342645706062 -2 -3 0
955 42 2 0.5564 7.303771431708399 -0.26250065187753857 16.66048234703792 -6 1 0
4336 1169 2 0.5564 9.264548843192498 3.4827834660456665 0.8598279821131376 0 2 0
3815 996 1 -1.1128 6.794259945183709 3.8363809218311764 5.416476931268395 2 -1 0
3816 996 2 0.5564 7.461443082226377 3.187285365679231 5.639582708584375 2 -1 0
3862 1011 2 0.5564 3.4317174566770445 -0.38205065480899636 13.539621385144024 -3 -5 0
3827 1000 1 -1.1128 6.361307311045649 4.155277759089069 2.8042495777425067 -3 4 0
3672 948 2 0.5564 5.627943827075354 0.25794792828884805 2.3919718234159784 3 2 0
4068 1080 2 0.5564 8.333112981831526 5.795949500608528 2.8148478759461395 4 -1 0
1101 91 2 0.5564 8.361837777796175 0.5675264074928164 2.569095635657835 -2 0 0
4067 1080 1 -1.1128 8.479668397030034 6.421909407124107 3.5240217448474036 4 -1 0
2078 417 1 -1.1128 13.453945678789623 2.790608546009982 6.024240788165336 4 -2 0
1227 133 2 0.5564 8.210199174320376 3.5984044472882415 2.4177943556618047 -3 3 0
1226 133 1 -1.1128 9.15501688310358 3.467117442851872 2.4972416759791543 -3 3 0
1228 133 2 0.5564 9.258861788850448 2.5199527836638373 2.5884975419545233 -3 3 0
2606 593 1 -1.1128 9.759939521855506 6.326916513213006 6.183275621191638 2 -1 0
2608 593 2 0.5564 9.220219184474423 6.628132652978046 5.452382839535953 2 -1 0
2607 593 2 0.5564 9.153018236177811 5.8496605400492 6.749056064140132 2 -1 0
1102 91 2 0.5564 9.725901052388503 0.13080068195590078 3.0595022876949125 -2 0 0
1100 91 1 -1.1128 9.296365818386809 0.7476093684694186 2.4668155237130134 -2 0 0
3797 990 1 -1.1128 12.915500552472444 2.2931494587252517 17.369146543763026 -4 0 0
3671 948 1 -1.1128 6.441317064889464 0.6041079094258498 2.024779185872234 3 2 0
3752 975 1 -1.1128 8.512278378656633 1.7345527656902011 6.140929364606609 -1 2 0
3276 816 2 0.5564 9.612552555939065 0.35816166398369725 5.563250011192928 -2 2 0
3275 816 1 -1.1128 10.143159941096295 -0.35499083359282846 5.208137901688617 -2 2 0
1450 207 2 0.5564 11.124123521518689 7.632486939989661 6.711856898325876 0 -2 0
1449 207 2 0.5564 12.44335488381272 7.4958248418154625 7.441819273259965 0 -2 0
4081 1084 2 0.5564 10.84927476864319 3.5143523207073626 4.5281321032140704 -2 0 0
4079 1084 1 -1.1128 11.22499809708207 3.9851845443538654 5.272027310424446 -2 0 0
4080 1084 2 0.5564 10.704665010349629 4.78599386955453 5.336779700668916 -2 0 0
4557 1243 2 0.5564 13.435940612073656 0.9974856911264838 8.711843586681137 -2 -1 0
2079 417 2 0.5564 12.7069966555365 3.255921372662693 5.647700535421665 4 -2 0
3754 975 2 0.5564 8.550749518045745 1.5676832461794674 7.082686106743397 -1 2 0
3387 853 2 0.5564 4.078352801839427 6.3452827741110385 3.9155038601837964 -1 2 0
3753 975 2 0.5564 7.836159152784059 1.138358931553371 5.818986590705107 -1 2 0
2723 632 1 -1.1128 -1.7026223547913404 5.583568880287353 2.65384494959471 -2 0 0
2701 624 2 0.5564 7.174587556639063 6.296276494922384 4.782216696489318 -1 3 0
4400 1191 1 -1.1128 2.6606055439025122 1.3337636085175566 19.78121659437628 0 -1 0
3045 739 2 0.5564 5.433234987786603 6.0480378961824925 11.820666056242075 0 1 0
2738 637 1 -1.1128 12.352353217986657 -0.5880569661742293 12.377583168116214 1 -2 0
4685 1286 1 -1.1128 2.192498454093294 7.5754672278951745 9.90750672745064 -3 -2 0
4401 1191 2 0.5564 3.5704005855161314 1.1433384265077413 20.009785596078828 0 -1 0
3828 1000 2 0.5564 5.755043095016265 4.8737817013455205 2.984325758684025 -3 4 0
435 2 4 0 8.59617 2.127 22.709149600932808 0 0 0
1690 287 2 0.5564 6.189373692024291 5.849831169410909 18.05185133772459 4 2 0
486 2 4 0 8.59617 4.963 22.709149600932808 0 0 0
440 2 4 0 12.2802 2.836 22.709149600932808 0 0 0
1892 355 1 -1.1128 13.570672322340736 1.3709493969823312 13.945130853723363 4 -2 0
443 2 4 0 13.5083 2.127 22.709149600932808 0 0 0
2109 427 2 0.5564 14.057319569628458 -0.5551178358202699 10.149572867050907 -1 6 0
4171 1114 2 0.5564 -0.1435663987209631 -0.05332652087450432 15.076330581735194 1 5 0
4412 1195 1 -1.1128 5.4279664074565 2.0047365937901183 9.115129396348705 -1 1 0
3719 964 1 -1.1128 6.177351848769531 -0.341703864213712 12.086954106940619 3 0 0
4169 1114 1 -1.1128 0.44103947038435937 -0.15711939621918825 15.827127114942558 1 5 0
438 2 4 0 11.0522 0.709 22.709149600932808 0 0 0
442 2 4 0 13.5083 0.709 22.709149600932808 0 0 0
3626 933 1 -1.1128 -1.3226090780461388 2.7514980032389103 12.447454023953739 3 -2 0
3799 990 2 0.5564 13.393997678142439 2.5351639326915514 18.16205327313653 -4 0 0