LAMMPS data file via write_data, version 2 Aug 2023, timestep = 5500000, units = real

5032 atoms
4 atom types
2800 bonds
1 bond types
1400 angles
1 angle types
0 impropers
1 improper types

-1.8420299999999998 30.08661 xlo xhi
-0.709 33.323 ylo yhi
-150 150 zlo zhi

Masses

1 15.9994
2 1.00794
3 12.0107
4 12.0107

Pair Coeffs # lj/cut/tip4p/long

1 0.1852 3.1589
2 0 0
3 0.0859 3.3997
4 0.0859 3.3997

Bond Coeffs # harmonic

1 5000 0.9572

Angle Coeffs # harmonic

1 500 104.52

Atoms # full

1 1 3 0 0 0 -19.086524130372066 0 0 0
2 1 3 0 -1.22802 0.709 -19.086524130372066 0 0 0
3 1 3 0 -1.22802 2.127 -19.086524130372066 0 0 0
4 1 3 0 0 2.836 -19.086524130372066 0 0 0
5 1 3 0 2.45605 0 -19.086524130372066 0 0 0
6 1 3 0 1.22802 0.709 -19.086524130372066 0 0 0
7 1 3 0 1.22802 2.127 -19.086524130372066 0 0 0
8 1 3 0 2.45605 2.836 -19.086524130372066 0 0 0
9 1 3 0 4.9121 0 -19.086524130372066 0 0 0
10 1 3 0 3.68407 0.709 -19.086524130372066 0 0 0
11 1 3 0 3.68407 2.127 -19.086524130372066 0 0 0
12 1 3 0 4.9121 2.836 -19.086524130372066 0 0 0
14 1 3 0 6.14012 0.709 -19.086524130372066 0 0 0
15 1 3 0 6.14012 2.127 -19.086524130372066 0 0 0
53 1 3 0 0 4.254 -19.086524130372066 0 0 0
54 1 3 0 -1.22802 4.963 -19.086524130372066 0 0 0
55 1 3 0 -1.22802 6.381 -19.086524130372066 0 0 0
56 1 3 0 0 7.09 -19.086524130372066 0 0 0
57 1 3 0 2.45605 4.254 -19.086524130372066 0 0 0
58 1 3 0 1.22802 4.963 -19.086524130372066 0 0 0
59 1 3 0 1.22802 6.381 -19.086524130372066 0 0 0
60 1 3 0 2.45605 7.09 -19.086524130372066 0 0 0
61 1 3 0 4.9121 4.254 -19.086524130372066 0 0 0
62 1 3 0 3.68407 4.963 -19.086524130372066 0 0 0
63 1 3 0 3.68407 6.381 -19.086524130372066 0 0 0
64 1 3 0 4.9121 7.09 -19.086524130372066 0 0 0
66 1 3 0 6.14012 4.963 -19.086524130372066 0 0 0
67 1 3 0 6.14012 6.381 -19.086524130372066 0 0 0
3873 1015 2 0.5564 -0.36993681800103106 1.5061744758405942 -13.872353307796368 2 -1 0
5000 1391 1 -1.1128 13.747114046397574 5.2450886276893165 -5.203880214673338 1 4 0
1811 328 1 -1.1128 13.960343143159132 1.3342423593096209 -11.692567617290312 -2 0 0
1179 117 2 0.5564 7.009931720429788 6.305838293438409 -14.94155027825386 -2 -3 0
1178 117 1 -1.1128 7.047299681958863 6.271233426843003 -15.897398509349115 -2 -3 0
2057 410 1 -1.1128 6.662720127542363 1.843940182886752 -15.863268976129948 2 -1 0
2059 410 2 0.5564 5.970213609665105 2.4859179842240584 -16.019901386606183 2 -1 0
3168 780 2 0.5564 -0.1037667718879358 4.984869479131993 -15.394590853053467 3 2 0
4363 1178 2 0.5564 2.908056840440266 3.4800252717502613 -16.2536014747779 0 1 0
3169 780 2 0.5564 0.6411117974964885 3.8300332523081106 -16.029732622713382 3 2 0
3167 780 1 -1.1128 -0.2412536730701702 4.161343400543649 -15.862709334446658 3 2 0
2128 433 2 0.5564 11.522257951063015 1.996494823115883 -13.678375369440184 2 3 0
4362 1178 2 0.5564 2.6681014301868267 2.0171924758800945 -15.946295603405757 0 1 0
4958 1377 1 -1.1128 6.072703995279551 6.826444777340741 -0.9181544672520721 5 0 0
3428 867 1 -1.1128 5.137342539031046 0.33192188506415765 -0.2580355929340933 2 4 0
4361 1178 1 -1.1128 2.2599829928065716 2.880737250261504 -15.883349331668766 0 1 0
3030 734 2 0.5564 7.2737015509278615 -0.020560237657288677 -10.451649819732792 1 -2 0
4959 1377 2 0.5564 6.355924178418878 6.164333490427868 -1.548731807043515 5 0 0
4024 1065 2 0.5564 9.165642936554171 1.6547423711069418 -1.1341696517539563 1 1 0
2952 708 2 0.5564 13.690111832140788 4.946114388624536 -15.077641219643857 -1 2 0
4960 1377 2 0.5564 5.142845343087595 6.645217146393013 -0.7812120980651398 5 0 0
13 1 3 0 7.36814 0 -19.086524130372066 0 0 0
16 1 3 0 7.36814 2.836 -19.086524130372066 0 0 0
17 1 3 0 9.82419 0 -19.086524130372066 0 0 0
18 1 3 0 8.59617 0.709 -19.086524130372066 0 0 0
19 1 3 0 8.59617 2.127 -19.086524130372066 0 0 0
20 1 3 0 9.82419 2.836 -19.086524130372066 0 0 0
21 1 3 0 12.2802 0 -19.086524130372066 0 0 0
22 1 3 0 11.0522 0.709 -19.086524130372066 0 0 0
23 1 3 0 11.0522 2.127 -19.086524130372066 0 0 0
24 1 3 0 12.2802 2.836 -19.086524130372066 0 0 0
26 1 3 0 13.5083 0.709 -19.086524130372066 0 0 0
27 1 3 0 13.5083 2.127 -19.086524130372066 0 0 0
65 1 3 0 7.36814 4.254 -19.086524130372066 0 0 0
68 1 3 0 7.36814 7.09 -19.086524130372066 0 0 0
69 1 3 0 9.82419 4.254 -19.086524130372066 0 0 0
70 1 3 0 8.59617 4.963 -19.086524130372066 0 0 0
71 1 3 0 8.59617 6.381 -19.086524130372066 0 0 0
72 1 3 0 9.82419 7.09 -19.086524130372066 0 0 0
73 1 3 0 12.2802 4.254 -19.086524130372066 0 0 0
74 1 3 0 11.0522 4.963 -19.086524130372066 0 0 0
75 1 3 0 11.0522 6.381 -19.086524130372066 0 0 0
76 1 3 0 12.2802 7.09 -19.086524130372066 0 0 0
78 1 3 0 13.5083 4.963 -19.086524130372066 0 0 0
79 1 3 0 13.5083 6.381 -19.086524130372066 0 0 0
1180 117 2 0.5564 7.911235579697429 6.620239133240274 -16.11658353620067 -2 -3 0
1879 350 2 0.5564 9.77895639788543 2.9819542306903872 -15.439741727420518 6 0 0
2951 708 1 -1.1128 13.525411543811703 5.292386409742703 -15.954682615514681 -1 2 0
4586 1253 1 -1.1128 11.296086718647022 1.8917067484919188 -15.536787468382162 4 1 0
4588 1253 2 0.5564 12.249100389685394 1.8125877725092905 -15.578503295748073 4 1 0
4587 1253 2 0.5564 10.98223966377853 0.9887620800692045 -15.487541831488748 4 1 0
1572 248 2 0.5564 11.461374611229344 6.910319816403827 -8.4745629543923 4 1 0
4860 1344 2 0.5564 0.23170829274413623 0.2936588727724004 -14.69799289706087 2 1 0
4858 1343 2 0.5564 6.888085896841117 0.000474800693432597 -15.808457317083606 2 2 0
2953 708 2 0.5564 13.886082936308098 4.631170148860063 -16.54539501551744 -1 2 0
1812 328 2 0.5564 13.673914277881039 1.0753693067124077 -10.816681962031952 -2 0 0
2510 561 1 -1.1128 9.57651991107836 4.736315344649277 -5.737333473251648 1 3 0
3872 1015 1 -1.1128 -0.9733403070472778 1.6399372632223526 -14.603274025746902 2 -1 0
4750 1307 2 0.5564 9.505595087974056 7.199053775406235 -0.9188260496866618 3 -2 0
3076 749 2 0.5564 8.078648936545314 7.650933025085798 -4.273916079346795 2 -1 0
1291 154 2 0.5564 1.8745147581584234 1.2622371421129353 -0.17900283290115918 -1 -1 0
2971 714 2 0.5564 6.67055311976153 6.681514148378735 -12.632915602509682 4 0 0
1193 122 1 -1.1128 -0.6517686600559947 4.615536263680476 -10.938810982803155 0 1 0
2428 533 2 0.5564 1.5495423195116866 0.9357900891392421 -11.89778746047711 1 1 0
4374 1182 2 0.5564 1.5973679611464533 2.815830461269631 -12.231945856190263 0 2 0
1696 289 2 0.5564 11.180942851937367 4.873058561121146 -6.802024640105693 0 -4 0
3892 1021 2 0.5564 11.795977622478729 0.09195989020417494 -0.6517984819701057 -3 4 0
2965 712 2 0.5564 -1.4019565912955514 1.7205164839924227 -9.292486882901517 3 -1 0
2964 712 2 0.5564 -0.9012220803485229 2.8148585227173606 -10.210954231502884 3 -1 0
2963 712 1 -1.1128 -0.608363360709495 2.0516734037941498 -9.712940404590368 3 -1 0
4373 1182 1 -1.1128 1.8357103198131128 3.7393954030147807 -12.312309020243664 0 2 0
2427 533 2 0.5564 0.24937238446165577 1.3928320320505905 -11.271235894105224 1 1 0
5002 1391 2 0.5564 13.229544488453564 5.054335016048149 -4.4215968177911495 1 4 0
1194 122 2 0.5564 -0.6336498806373667 5.5058048830879 -10.587632367658507 0 1 0
3332 835 1 -1.1128 2.9762091943132307 4.454190592777577 -9.79302043632833 -1 0 0
2298 490 2 0.5564 1.1031202261256554 1.1339376266664902 -9.244954637547547 -3 1 0
2297 490 1 -1.1128 1.9415804379562402 0.7193152065149254 -9.041717211921224 -3 1 0
1659 277 2 0.5564 13.90706334460711 0.3600154335781788 -15.46917221926958 0 2 0
4375 1182 2 0.5564 2.348258225083798 3.785620262193261 -13.119397122480173 0 2 0
3333 835 2 0.5564 2.640824932890073 4.30779358348207 -10.677509426171053 -1 0 0
3334 835 2 0.5564 2.4473282408679395 3.8811437988934014 -9.237915096769347 -1 0 0
2895 689 2 0.5564 4.7745266818586245 3.99726370382769 -15.019597305431036 4 2 0
4844 1339 1 -1.1128 -0.3858167028662428 6.957102122767455 -9.712320822026138 -2 -1 0
2896 689 2 0.5564 5.907936555052541 4.583182294704071 -15.834445106187 4 2 0
2894 689 1 -1.1128 5.047773235148907 4.172079699498545 -15.920157733822645 4 2 0
3105 759 2 0.5564 -1.2384602429426959 7.403894347611845 -13.340907097343553 1 -1 0
4223 1132 1 -1.1128 9.279204819645726 1.4302140321732204 -2.894534472275192 0 2 0
840 4 2 0.5564 3.8664864382089164 1.6873093422194765 -11.301985697563005 -2 1 0
2647 606 2 0.5564 3.7836005846536747 5.066999250040619 -12.896871464315772 -3 0 0
2645 606 1 -1.1128 4.293393867726533 4.422811975196477 -13.388163453601729 -3 0 0
1195 122 2 0.5564 0.10987832929503984 4.569994666171339 -11.516783155733727 0 1 0
2426 533 1 -1.1128 0.6758071273870025 1.2590006849071065 -12.117684141373926 1 1 0
2058 410 2 0.5564 7.458485711688975 2.3675010968442125 -15.769063072517199 2 -1 0
841 4 2 0.5564 3.051217595601021 0.6826469532858986 -10.515927923590914 -2 1 0
839 4 1 -1.1128 3.188666650900078 1.018818769405053 -11.401551908173204 -2 1 0
2969 714 1 -1.1128 7.257419196910827 6.167928333325367 -13.18793860996748 4 0 0
2646 606 2 0.5564 4.7471034153207325 3.9132515002972266 -12.71679816690301 -3 0 0
1628 267 1 -1.1128 -1.687642453786405 0.641967612053728 -5.704512869153107 4 -2 0
4824 1332 2 0.5564 3.0429978606722297 5.058720299545156 -1.0257754348466863 -2 2 0
2725 632 2 0.5564 4.742543198811277 4.472860215982571 -9.375832644134316 -1 -1 0
2194 455 2 0.5564 2.5543404316771086 6.022073849179371 -9.003479048984122 1 -4 0
3970 1047 2 0.5564 12.130378628449012 2.2248968519896333 -4.12602026866951 1 0 0
2257 476 2 0.5564 11.334574593247279 5.875395494183733 -1.2931645496897821 5 -1 0
3074 749 1 -1.1128 8.045049398821353 6.803381069122993 -3.830338510888865 2 -1 0
4290 1154 2 0.5564 9.45068199897913 -0.3704609109615432 -14.173382073471057 -3 -1 0
4831 1334 2 0.5564 11.218876616319085 5.855755146024201 -15.534950716242152 -1 1 0
4829 1334 1 -1.1128 10.290005177342127 5.883736568576836 -15.305499827325756 -1 1 0
1877 350 1 -1.1128 8.989070582488324 3.514634202496655 -15.347196731390262 6 0 0
1878 350 2 0.5564 9.310965730250885 4.4147831809907565 -15.29873849755385 6 0 0
4748 1307 1 -1.1128 10.055956085459812 7.049856675177717 -1.6876404724122855 3 -2 0
3011 728 1 -1.1128 12.895149765409906 3.5508992731832936 -2.992637848346409 -2 1 0
2714 629 1 -1.1128 0.3061933082398114 6.670166668095923 -14.887509306749815 3 2 0
4291 1154 2 0.5564 10.052855377433751 0.3144812217963175 -12.965018762619204 -3 -1 0
3894 1022 2 0.5564 10.725338083489635 6.83502692402473 -12.56593228425728 2 -1 0
1931 368 1 -1.1128 12.440945807431799 6.08385581399251 -12.994174823606478 3 2 0
3608 927 1 -1.1128 11.99572175498365 5.665777476966526 -10.254026271512002 1 -1 0
4217 1130 1 -1.1128 8.640302934211029 6.6222477612109385 -7.516228357350043 2 0 0
4830 1334 2 0.5564 10.270881379212275 6.266742343232266 -14.428474106521685 -1 1 0
1792 321 2 0.5564 -1.2255763826562334 2.8287364268796447 -3.054640361713934 0 3 0
2126 433 1 -1.1128 11.586365949139887 1.5979561033290837 -12.810450414198833 2 3 0
3609 927 2 0.5564 11.700265741839521 5.192294865649611 -11.031685445173842 1 -1 0
2708 627 1 -1.1128 7.912283751797806 2.822219623725083 -13.099586458078766 -2 1 0
3814 995 2 0.5564 5.485601248750562 3.5243475903504007 -10.629854341567942 -2 -1 0
2127 433 2 0.5564 11.129877137608258 2.2085857944462304 -12.231670626492706 2 3 0
4225 1132 2 0.5564 8.638543673442653 0.7740330804534069 -3.168791024689378 0 2 0
2709 627 2 0.5564 8.127028140846123 3.221586960272007 -13.942571148641806 -2 1 0
3006 726 2 0.5564 10.262110650437089 2.317931543798395 -8.659426103013303 0 -3 0
2549 574 1 -1.1128 6.9006890736895485 3.1686897952905966 -3.862626465326639 0 4 0
3007 726 2 0.5564 8.831003397905572 1.9676207163228572 -9.007437509287632 0 -3 0
3005 726 1 -1.1128 9.558827237388082 2.5296097757226486 -9.27328186803072 0 -3 0
2258 477 1 -1.1128 13.354423811606297 0.18188357463473756 -9.19036368104321 4 0 0
3813 995 2 0.5564 6.426748722356475 3.149149553723165 -11.754738691406384 -2 -1 0
1658 277 1 -1.1128 14.063856318556885 1.298517427408402 -15.364947447382274 0 2 0
3812 995 1 -1.1128 5.560269421724743 2.956264081881332 -11.396627116056887 -2 -1 0
4219 1130 2 0.5564 8.460806485581816 6.378426316984131 -8.424287264543858 2 0 0
3610 927 2 0.5564 11.691288166466002 5.133596916908276 -9.518949536334102 1 -1 0
2710 627 2 0.5564 7.264197784184966 2.150135056268311 -13.310581950515182 -2 1 0
4289 1154 1 -1.1128 9.452877496964414 -0.3877298276701289 -13.216336911994027 -3 -1 0
1932 368 2 0.5564 12.951771491168067 5.287321299651754 -12.849874365567242 3 2 0
2130 434 2 0.5564 8.670529645407143 5.80235296261679 -10.760259798661478 -1 1 0
2129 434 1 -1.1128 8.049880184909323 5.927557669799177 -10.042380713032731 -1 1 0
4628 1267 1 -1.1128 3.59709490786146 0.1385851854969511 -15.727636108609994 3 0 0
2131 434 2 0.5564 7.416019453258514 5.2179204149564775 -10.146631161742329 -1 1 0
4703 1292 1 -1.1128 2.2665304135440247 -0.13890551388206174 -3.155900468544268 -2 -2 0
4181 1118 1 -1.1128 10.096882198728833 3.674014628053604 -11.689562538007669 -1 1 0
3893 1022 1 -1.1128 9.78628955237819 7.008633181138766 -12.500489910517869 2 -1 0
4183 1118 2 0.5564 9.383260239170623 3.477312470339417 -12.296426921811069 -1 1 0
1933 368 2 0.5564 12.976983422610914 6.783613964622683 -12.621030786784415 3 2 0
4182 1118 2 0.5564 9.828514778533338 3.26980538423281 -10.864440574829457 -1 1 0
2724 632 2 0.5564 5.7121028761974815 5.156108204103887 -8.435076445105585 -1 -1 0
2723 632 1 -1.1128 5.677286765492522 4.594190931539475 -9.209201482923616 -1 -1 0
1817 330 1 -1.1128 9.768101767040678 -0.49446811240339184 -15.995883564523451 -1 -1 0
4704 1292 2 0.5564 2.2284166410127826 0.3624415173523807 -2.341382788523372 -2 -2 0
3838 1003 2 0.5564 6.730560948790988 6.797161916855606 -7.148202920238477 2 1 0
4246 1139 2 0.5564 12.414668246220534 1.8275138831326265 -7.947436768458462 1 1 0
3029 734 1 -1.1128 7.562152328572041 0.1591861792257057 -9.556819334938735 1 -2 0
4238 1137 1 -1.1128 3.466052500220106 6.767270048634326 -14.804525808073548 -1 -1 0
2970 714 2 0.5564 8.135611922301077 6.389300413509508 -12.878089969722925 4 0 0
4924 1365 2 0.5564 7.630469729851952 -0.215681079025289 -12.687269126455677 0 1 0
4859 1344 1 -1.1128 0.8992615317277732 -0.3922827004852744 -14.707511993217985 2 1 0
942 38 2 0.5564 5.0637285307726 -0.5407853308528681 -7.430212050692569 1 -2 0
3289 820 2 0.5564 -1.2061108159878973 1.2662113195854034 -1.1431471561913313 -1 0 0
4251 1141 2 0.5564 3.982667866469413 7.057018009029154 -11.622637099279864 -2 -2 0
4230 1134 2 0.5564 2.918314023575321 0.8086058048043867 -7.5375079359791615 -2 5 0
4229 1134 1 -1.1128 3.6323401281014354 0.8460432700858561 -6.901109201508501 -2 5 0
4846 1339 2 0.5564 -0.11625738005696738 7.588680463924178 -10.37916938190739 -2 -1 0
3874 1015 2 0.5564 -0.6068444137132801 2.381894369938004 -15.084329866393158 2 -1 0
4231 1134 2 0.5564 4.24487471606086 1.4852738835036172 -7.26500707460603 -2 5 0
4922 1365 1 -1.1128 6.8628851777081294 0.017816530254185642 -12.165227204348398 0 1 0
4245 1139 2 0.5564 11.968948791293093 3.137726585137895 -7.333779305992667 1 1 0
4630 1267 2 0.5564 2.676735871124992 -0.11042351790303796 -15.642971512053025 3 0 0
4108 1093 2 0.5564 -1.0881022224831094 6.583720856313338 -4.6376386499309055 -3 0 0
4247 1140 1 -1.1128 0.2022301181101963 5.393257322715023 -1.7773745579651403 3 -1 0
2551 574 2 0.5564 7.716023053197958 3.0415066721206494 -3.377562358546174 0 4 0
1630 267 2 0.5564 -0.9326972948212446 1.2194126826167164 -5.591157109580086 4 -2 0
4629 1267 2 0.5564 3.822318653759839 -0.0788944630926235 -16.63218515472767 3 0 0
3968 1047 1 -1.1128 11.883104050956822 1.3736740759271313 -4.487282185704643 1 0 0
3781 984 2 0.5564 0.5448230659454211 3.2208237374652997 -8.3014097150698 -2 -2 0
4248 1140 2 0.5564 0.08140660964801384 5.782075348975507 -2.643662640485505 3 -1 0
2255 476 1 -1.1128 12.056710030783995 5.384260266478633 -0.9013206619828238 5 -1 0
2475 549 2 0.5564 0.9197567745965848 6.076270180791863 -5.465363530739487 1 3 0
3780 984 2 0.5564 1.1593627484063267 4.075781745575379 -7.2136212633767975 -2 -2 0
1799 324 1 -1.1128 2.2738942528247303 3.605396217693816 -2.4072026964840534 -3 1 0
1800 324 2 0.5564 2.691089468251708 2.9360166771021374 -1.8648806570937388 -3 1 0
3156 776 2 0.5564 0.3378474081069367 3.8348487786269767 -4.984409462026406 -1 -1 0
3157 776 2 0.5564 -1.1598459858480445 3.6821264673730236 -4.824765902142071 -1 -1 0
2474 549 1 -1.1128 1.4915239702908405 5.52258209713834 -5.997100841783547 1 3 0
3779 984 1 -1.1128 1.3625892178591228 3.3692287350980203 -7.826576583101793 -2 -2 0
2193 455 2 0.5564 1.4874143141248541 7.069631452424734 -8.766440054430479 1 -4 0
1826 333 1 -1.1128 1.1048808482041486 1.1976788887355223 -5.239774037199886 0 1 0
1828 333 2 0.5564 0.8173572337176831 1.9867587577039678 -4.7805138004695085 0 1 0
1827 333 2 0.5564 1.8849010744290051 1.4715909168622425 -5.722241064800599 0 1 0
2192 455 1 -1.1128 2.3287079943780324 6.757217379976757 -8.43349095560681 1 -4 0
2778 650 2 0.5564 2.7615738658143187 4.098848732917102 -5.561565883601456 -1 1 0
3155 776 1 -1.1128 -0.3270524182474494 3.2847580981418636 -4.57023494929319 -1 -1 0
2777 650 1 -1.1128 2.9983783809443887 3.264542348455783 -5.156485571740526 -1 1 0
2779 650 2 0.5564 3.503505809860663 2.8064350098568904 -5.8282121038977746 -1 1 0
2476 549 2 0.5564 1.705041207361785 6.060430802379002 -6.759571447606349 1 3 0
3031 734 2 0.5564 6.8115543737715685 -0.07527454277304721 -9.011051056047123 1 -2 0
4252 1141 2 0.5564 3.3512447383009487 6.835974634444277 -12.980702029634507 -2 -2 0
2256 476 2 0.5564 12.844016638160207 5.852324100480894 -1.179350948113266 5 -1 0
1289 154 1 -1.1128 2.459677621291616 1.3245178381543854 -0.9339450798183898 -1 -1 0
1123 98 2 0.5564 12.989727937590771 0.10040350099896928 -4.780773321284841 1 2 0
1303 158 2 0.5564 5.740525338572831 4.8087351413612 -4.384338218026446 -2 5 0
1801 324 2 0.5564 2.6053277481051085 3.440042716003442 -3.289836962295647 -3 1 0
1813 328 2 0.5564 13.156017222973771 1.357529427178789 -12.210979426183393 -2 0 0
4249 1140 2 0.5564 0.786484329632662 4.650015086330461 -1.9272819489829913 3 -1 0
1290 154 2 0.5564 3.3112795133237447 1.040740169549947 -0.6015521548237455 -1 -1 0
4106 1093 1 -1.1128 -0.17151151365448486 6.789307501804133 -4.453714816740316 -3 0 0
3891 1021 2 0.5564 11.708659385402381 1.4291479672963638 -1.3562136333388046 -3 4 0
3890 1021 1 -1.1128 11.758041937208278 1.033899333293117 -0.48582725227229356 -3 4 0
2716 629 2 0.5564 1.2315532293188414 6.776985990458789 -14.667211791050901 3 2 0
2587 586 2 0.5564 6.232787760021601 2.6770076215123804 -6.94808612783721 -1 0 0
3013 728 2 0.5564 12.724981595576505 4.134654829735186 -2.2533764604376287 -2 1 0
1629 267 2 0.5564 -1.3270181852450214 -0.24168024169744048 -5.631341733758867 4 -2 0
4845 1339 2 0.5564 -1.1440904342255904 7.361812151274627 -9.291055148597813 -2 -1 0
3969 1047 2 0.5564 11.845035659927223 1.5162498851999562 -5.43303970106996 1 0 0
4022 1065 1 -1.1128 9.07151842363641 1.6563702698422826 -0.18160729722622296 1 1 0
2512 561 2 0.5564 9.447773697151382 5.125161818988361 -4.872200602011163 1 3 0
4224 1132 2 0.5564 10.004220747232003 1.3302714047194513 -3.511460213100892 0 2 0
3303 825 2 0.5564 13.899593578216068 -0.177591774288769 -12.254688363543849 1 2 0
3430 867 2 0.5564 5.438009944697496 0.4606985719010261 -1.157618277310486 2 4 0
4957 1376 2 0.5564 8.602335313994447 3.172149312705336 -5.860291977223926 -1 0 0
4250 1141 1 -1.1128 3.2135423139362866 6.676700905009356 -12.04694497019309 -2 -2 0
1695 289 2 0.5564 12.607669281592102 5.3407168938218454 -6.99605087117467 0 -4 0
4956 1376 2 0.5564 8.400568393943814 1.717447352286737 -6.227753829849739 -1 0 0
1694 289 1 -1.1128 11.88049781521166 4.9188689945540185 -7.453762055873891 0 -4 0
1856 343 1 -1.1128 9.442507067118859 0.19686452354783054 -6.200957795215684 -1 3 0
4749 1307 2 0.5564 9.461738687513552 6.678506799214302 -2.3397424087740615 3 -2 0
4705 1292 2 0.5564 1.8208926823266232 0.4130673652710627 -3.79852820353255 -2 -2 0
3880 1017 2 0.5564 13.653148236833951 4.959275881564192 -10.575457204471855 0 -2 0
2715 629 2 0.5564 0.028142314438385285 7.537214382541434 -15.182724271213306 3 2 0
3453 875 2 0.5564 6.401694341530528 0.36090763689990296 -3.6260240013992626 2 1 0
1858 343 2 0.5564 9.99203835016395 0.012341296763833009 -6.962665476264291 -1 3 0
3837 1003 2 0.5564 5.25992452735876 6.872314656173999 -7.4995977918754635 2 1 0
3836 1003 1 -1.1128 5.8862164896070155 6.385756766853688 -6.963637075910277 2 1 0
2585 586 1 -1.1128 5.35783814960702 3.0045242404649475 -7.156491370895282 -1 0 0
1053 75 2 0.5564 4.12758062876687 1.046074942902756 -3.3717887274734557 0 0 0
1054 75 2 0.5564 5.305110156213147 1.9974588935037538 -3.3579864758419427 0 0 0
2586 586 2 0.5564 5.45537884342454 3.421851584089222 -8.0123893231454 -1 0 0
1052 75 1 -1.1128 5.003789387769731 1.1607590159741081 -3.003905498897377 0 0 0
3075 749 2 0.5564 7.130109099083774 6.531293667507366 -3.9016548451630397 2 -1 0
2511 561 2 0.5564 9.042745168738202 5.272798932054725 -6.323424429535691 1 3 0
1302 158 2 0.5564 5.260577993886118 5.986798203598454 -5.2051393789614355 -2 5 0
2550 574 2 0.5564 7.080255154121279 2.81052798502719 -4.731941710931189 0 4 0
3012 728 2 0.5564 13.8297782293549 3.353289379306 -2.9321915387766166 -2 1 0
4955 1376 1 -1.1128 7.94173438099738 2.555960191595078 -6.1767562661985735 -1 0 0
1301 158 1 -1.1128 5.441919230872271 5.714745609931715 -4.305507618412568 -2 5 0
4244 1139 1 -1.1128 11.739373816988206 2.209996994920319 -7.387153563132153 1 1 0
4902 1358 2 0.5564 4.337538274984159 7.626695630334316 -3.499627652152728 -3 0 0
3771 981 2 0.5564 2.1856214277601023 7.053207103078057 -0.7966305466879097 2 -2 0
3287 820 1 -1.1128 -1.2260687478646455 0.5738603637009372 -0.4824744582224269 -1 0 0
4107 1093 2 0.5564 -0.1535216070206132 7.741629195748838 -4.358883949166375 -3 0 0
4823 1332 1 -1.1128 3.4397760653145752 5.725485624571743 -0.46521900878910827 -2 2 0
2259 477 2 0.5564 12.538398684005017 -0.3179547712883865 -9.212673027038296 4 0 0
4240 1137 2 0.5564 3.9843936866137666 6.252751882874128 -15.42325472799425 -1 -1 0
4218 1130 2 0.5564 9.423155668216786 7.170852724181192 -7.565308260330721 2 0 0
3452 875 1 -1.1128 7.172557441399625 -0.18584381896247484 -3.777897891691699 2 1 0
2299 490 2 0.5564 1.8332321547808423 -0.1901579960628484 -9.319847193944371 -3 1 0
1571 248 1 -1.1128 11.19609999295401 7.67946698726964 -7.970306851417704 4 1 0
1170 114 2 0.5564 -1.80311376106561 2.730922103636511 -13.050898043983208 -1 2 0
1857 343 2 0.5564 9.024866198328194 -0.6401440420385135 -5.997918711001607 -1 3 0
2818 663 2 0.5564 7.647848287160306 7.468554192690349 -0.11856269219972289 3 1 0
982 51 2 0.5564 6.9320401385773085 7.746276235915983 -9.329562261245076 -1 1 0
4239 1137 2 0.5564 3.6380695157511935 7.67740211609893 -15.04598820680213 -1 -1 0
2113 428 2 0.5564 13.730696820191403 7.59596524720923 -15.950394455117644 1 2 0
1536 236 2 0.5564 9.908819427973707 7.537198377342298 -16.107522292186616 -2 0 0
1121 98 1 -1.1128 13.555831548538757 -0.6175813880647697 -5.064069798860201 1 2 0
2260 477 2 0.5564 13.971962734579854 -0.3872190016892325 -8.731015968618252 4 0 0
1790 321 1 -1.1128 -1.7823063214585453 2.4249992272371514 -2.388844476409652 0 3 0
1228 133 2 0.5564 1.7242362111014318 7.753053818534256 -11.670015732031983 -4 4 0
4923 1365 2 0.5564 6.122348031683133 -0.3432149840898404 -12.652561399235507 0 1 0
4861 1344 2 0.5564 1.0061059385324727 -0.6359534434562306 -13.788033137840948 2 1 0
4270 1147 2 0.5564 0.41570760382823313 3.541348145361558 7.75480061156224 2 0 0
1621 264 2 0.5564 1.5694118697661437 3.695875053703648 4.476715859238049 -1 3 0
1619 264 1 -1.1128 1.501857083447268 2.74742350255851 4.3666667961330825 -1 3 0
1620 264 2 0.5564 0.6469920757399209 2.5234391144230135 4.734460390246184 -1 3 0
4616 1263 1 -1.1128 5.492608512291859 3.0518844863992456 6.597238182882466 2 4 0
4316 1163 1 -1.1128 2.4183010782216954 1.6554678787015535 2.0969094202985836 2 1 0
2063 412 1 -1.1128 -1.498022162943958 2.796429619436417 5.273682490465688 6 1 0
2825 666 1 -1.1128 2.584654358017382 0.39944634944708995 5.54209037208579 1 4 0
4825 1332 2 0.5564 3.5454736876364494 5.294208615292621 0.3827553996730985 -2 2 0
2500 557 2 0.5564 1.6627296816571528 5.185449547774403 6.948462750132862 2 4 0
2498 557 1 -1.1128 1.4899915266127204 4.984347955756769 7.8682193694350335 2 4 0
4023 1065 2 0.5564 9.959643747015898 1.5180554551055165 0.14753901064143216 1 1 0
2693 622 1 -1.1128 12.284221645028742 6.05007615589011 4.941881548753219 -2 -1 0
4896 1356 2 0.5564 0.18097809790624203 5.768481666131063 4.47535033934232 0 2 0
2826 666 2 0.5564 2.9849984714917355 0.5368047160138029 6.400629702284151 1 4 0
2499 557 2 0.5564 2.1504534343365194 5.481550490705344 8.350727420629005 2 4 0
899 24 1 -1.1128 -0.36026219438633666 1.59017271867692 1.8285767584483748 -6 1 0
900 24 2 0.5564 0.5742462795500974 1.7381863759971177 1.9735675021981456 -6 1 0
2562 578 2 0.5564 4.313102773515395 1.613836577835917 7.494432026748491 -2 2 0
2065 412 2 0.5564 -1.196957081928508 2.5972764118217526 6.160210752305878 6 1 0
4153 1108 2 0.5564 -1.5583133290900641 1.2748187212419138 15.213052279435638 -5 2 0
3282 818 2 0.5564 -0.8955863710019845 5.493986522603301 15.461332374247261 -1 3 0
2524 565 2 0.5564 -1.0537457019812109 3.1982377641370605 1.80778762550058 -3 0 0
4897 1356 2 0.5564 1.552777504105108 6.2878194464187125 4.100715111030211 0 2 0
2568 580 2 0.5564 1.70737189883827 -0.4441178362525148 19.234539003073497 -1 -1 0
3962 1045 1 -1.1128 13.90116300147379 4.227751583287711 3.385839257339586 -2 3 0
2740 637 2 0.5564 -0.8596767027354779 5.461176559823587 9.555306467783423 2 -1 0
4617 1263 2 0.5564 5.926361923281217 3.866734316674735 6.850438681953084 2 4 0
1333 168 2 0.5564 5.775859360333132 7.459062299913975 19.17427787373527 0 2 0
4618 1263 2 0.5564 4.8725723973001935 3.311748946744802 5.915871010508157 2 4 0
901 24 2 0.5564 -0.5973900265251219 0.9138207814838243 2.463047032333638 -6 1 0
3924 1032 2 0.5564 11.464149736853964 0.8820328969009039 2.8171104956776025 -2 1 0
4408 1193 2 0.5564 3.7704865592881562 7.227705657756583 9.43490683831635 0 1 0
4318 1163 2 0.5564 3.0161781747768424 2.26991802226835 1.6712028498011264 2 1 0
1020 64 2 0.5564 13.806295082599137 6.296385030853518 13.890891947345699 -4 2 0
2698 623 2 0.5564 9.429478603729894 -0.12013079473684449 9.364808042443874 -2 1 0
4156 1109 2 0.5564 12.774245102035637 4.176170986364435 16.446219166698928 0 -1 0
4317 1163 2 0.5564 2.3505957924201337 1.9716737272668126 2.9978323778375313 2 1 0
1395 189 2 0.5564 4.200917975571156 4.677743068359206 4.650179978001932 0 -1 0
4194 1122 2 0.5564 11.885129203006448 -0.5592957961801138 6.664016763230228 1 4 0
4406 1193 1 -1.1128 3.226065379911666 6.449771428202313 9.55597838596313 0 1 0
4895 1356 1 -1.1128 1.0999307336220923 5.739810171546621 4.741692217330473 0 2 0
1263 145 2 0.5564 -1.830390455224236 6.660893210100244 13.967159886969874 -1 -1 0
4941 1371 2 0.5564 6.816087329503178 6.075086132054746 7.558028911051107 4 -2 0
1387 186 2 0.5564 8.434810463779227 3.8819947958671017 0.6413044439326251 -2 3 0
2827 666 2 0.5564 2.3145454266916676 1.2735480761577058 5.260630790165738 1 4 0
1394 189 1 -1.1128 4.379745007271037 3.78744337856428 4.3474919644255445 0 -1 0
3429 867 2 0.5564 5.748016271443376 0.8416573767376188 0.27439617312229314 2 4 0
4350 1174 2 0.5564 13.381231953535716 0.6829441048207701 9.391836255130816 -1 1 0
438 2 4 0 11.0522 0.709 22.709149600932808 0 0 0
1385 186 1 -1.1128 8.431157909180964 4.6560443552219235 1.2043907307410928 -2 3 0
1243 138 2 0.5564 4.489093730872737 3.6561426248030893 2.418862334162974 0 0 0
4151 1108 1 -1.1128 -1.7445518102561648 0.5725122512509732 15.836200702352834 -5 2 0
3624 932 2 0.5564 12.44319459559835 3.1303881024671405 0.9851011460010676 -1 -1 0
2809 660 2 0.5564 8.360281584554894 3.048944320277448 6.408300036992767 -1 0 0
3775 982 2 0.5564 -0.10090026598766846 6.061954618128651 0.12438082754029287 2 0 0
3913 1028 2 0.5564 7.100013343096062 1.5548550295395782 2.055193761762239 -3 -1 0
2747 640 1 -1.1128 -1.5726217757961534 1.114334606265127 18.895940929054998 -1 0 0
1492 221 2 0.5564 7.449471985525867 4.177914547656135 2.7347509416939153 2 -3 0
1490 221 1 -1.1128 7.022292717115511 4.142241711413405 3.590602535200034 2 -3 0
1242 138 2 0.5564 5.411626776424859 2.946702915779212 1.4506013905175907 0 0 0
1102 91 2 0.5564 7.341130611458483 0.700214846734288 4.16277015557307 -2 1 0
1491 221 2 0.5564 7.643184975983781 3.6748691443215082 4.14943164251836 2 -3 0
4221 1131 2 0.5564 10.661849291987155 2.5540029405054967 5.966927826806492 -2 -3 0
4220 1131 1 -1.1128 11.325091412927645 2.214007109059315 6.567548738457238 -2 -3 0
3912 1028 2 0.5564 7.465821225579876 1.945786797221658 0.6391242065236432 -3 -1 0
2807 660 1 -1.1128 8.869295228136716 3.2903078263670547 5.634426113224003 -1 0 0
2143 438 2 0.5564 13.15796187046302 0.21994732554742358 14.499128424255074 -1 0 0
2808 660 2 0.5564 9.199437653206925 4.167593412190146 5.82835469328998 -1 0 0
3625 932 2 0.5564 11.422614846601512 3.0594283792340904 2.1010215261051077 -1 -1 0
968 47 1 -1.1128 13.579179292486762 7.475217058011467 19.241454910664405 -1 -1 0
1588 253 2 0.5564 5.387571192553188 -0.5855618491773504 4.631679092634094 1 4 0
1586 253 1 -1.1128 5.8525409622643485 0.14487098495290054 5.0397289591628756 1 4 0
1241 138 1 -1.1128 4.606963790245135 3.4637217320194087 1.4886393946880618 0 0 0
1317 163 2 0.5564 10.168730981268109 5.671081238788173 7.224877096716973 1 0 0
1316 163 1 -1.1128 9.886217846744959 5.82424782251816 6.3232327347589905 1 0 0
3911 1028 1 -1.1128 6.72402989341709 1.890885656254943 1.2415890516866197 -3 -1 0
3923 1032 1 -1.1128 10.719251789560525 1.4777196237705803 2.7363760024952914 -2 1 0
3623 932 1 -1.1128 11.940381112956032 3.6790895396906738 1.5870461234393052 -1 -1 0
3925 1032 2 0.5564 9.951446565007329 0.9204484597400715 2.8634855484191846 -2 1 0
3236 803 1 -1.1128 14.004068118230135 1.6175724202373991 0.853534055751062 0 -1 0
3401 858 1 -1.1128 2.8075323339983074 7.3734689024715605 16.33197435916862 -1 2 0