LAMMPS data file via write_data, version 2 Aug 2023, timestep = 7000000, units = real

4432 atoms
4 atom types
2400 bonds
1 bond types
1200 angles
1 angle types
0 impropers
1 improper types

-1.8420299999999998 30.08661 xlo xhi
-0.709 33.323 ylo yhi
-150 150 zlo zhi

Masses

1 15.9994
2 1.00794
3 12.0107
4 12.0107

Pair Coeffs # lj/cut/tip4p/long

1 0.1852 3.1589
2 0 0
3 0.0859 3.3997
4 0.0859 3.3997

Bond Coeffs # harmonic

1 5000 0.9572

Angle Coeffs # harmonic

1 500 104.52

Atoms # full

1 1 3 0 0 0 -16.168203030381882 0 0 0
2 1 3 0 -1.22802 0.709 -16.168203030381882 0 0 0
3 1 3 0 -1.22802 2.127 -16.168203030381882 0 0 0
4 1 3 0 0 2.836 -16.168203030381882 0 0 0
5 1 3 0 2.45605 0 -16.168203030381882 0 0 0
6 1 3 0 1.22802 0.709 -16.168203030381882 0 0 0
7 1 3 0 1.22802 2.127 -16.168203030381882 0 0 0
8 1 3 0 2.45605 2.836 -16.168203030381882 0 0 0
9 1 3 0 4.9121 0 -16.168203030381882 0 0 0
10 1 3 0 3.68407 0.709 -16.168203030381882 0 0 0
11 1 3 0 3.68407 2.127 -16.168203030381882 0 0 0
12 1 3 0 4.9121 2.836 -16.168203030381882 0 0 0
14 1 3 0 6.14012 0.709 -16.168203030381882 0 0 0
15 1 3 0 6.14012 2.127 -16.168203030381882 0 0 0
53 1 3 0 0 4.254 -16.168203030381882 0 0 0
54 1 3 0 -1.22802 4.963 -16.168203030381882 0 0 0
55 1 3 0 -1.22802 6.381 -16.168203030381882 0 0 0
56 1 3 0 0 7.09 -16.168203030381882 0 0 0
57 1 3 0 2.45605 4.254 -16.168203030381882 0 0 0
58 1 3 0 1.22802 4.963 -16.168203030381882 0 0 0
59 1 3 0 1.22802 6.381 -16.168203030381882 0 0 0
60 1 3 0 2.45605 7.09 -16.168203030381882 0 0 0
61 1 3 0 4.9121 4.254 -16.168203030381882 0 0 0
62 1 3 0 3.68407 4.963 -16.168203030381882 0 0 0
63 1 3 0 3.68407 6.381 -16.168203030381882 0 0 0
64 1 3 0 4.9121 7.09 -16.168203030381882 0 0 0
66 1 3 0 6.14012 4.963 -16.168203030381882 0 0 0
67 1 3 0 6.14012 6.381 -16.168203030381882 0 0 0
13 1 3 0 7.36814 0 -16.168203030381882 0 0 0
16 1 3 0 7.36814 2.836 -16.168203030381882 0 0 0
17 1 3 0 9.82419 0 -16.168203030381882 0 0 0
18 1 3 0 8.59617 0.709 -16.168203030381882 0 0 0
19 1 3 0 8.59617 2.127 -16.168203030381882 0 0 0
20 1 3 0 9.82419 2.836 -16.168203030381882 0 0 0
21 1 3 0 12.2802 0 -16.168203030381882 0 0 0
22 1 3 0 11.0522 0.709 -16.168203030381882 0 0 0
23 1 3 0 11.0522 2.127 -16.168203030381882 0 0 0
24 1 3 0 12.2802 2.836 -16.168203030381882 0 0 0
26 1 3 0 13.5083 0.709 -16.168203030381882 0 0 0
27 1 3 0 13.5083 2.127 -16.168203030381882 0 0 0
65 1 3 0 7.36814 4.254 -16.168203030381882 0 0 0
68 1 3 0 7.36814 7.09 -16.168203030381882 0 0 0
69 1 3 0 9.82419 4.254 -16.168203030381882 0 0 0
70 1 3 0 8.59617 4.963 -16.168203030381882 0 0 0
71 1 3 0 8.59617 6.381 -16.168203030381882 0 0 0
72 1 3 0 9.82419 7.09 -16.168203030381882 0 0 0
73 1 3 0 12.2802 4.254 -16.168203030381882 0 0 0
74 1 3 0 11.0522 4.963 -16.168203030381882 0 0 0
75 1 3 0 11.0522 6.381 -16.168203030381882 0 0 0
76 1 3 0 12.2802 7.09 -16.168203030381882 0 0 0
78 1 3 0 13.5083 4.963 -16.168203030381882 0 0 0
79 1 3 0 13.5083 6.381 -16.168203030381882 0 0 0
2999 724 1 -1.1128 -1.556997372430885 3.066811736502946 -12.836834873956661 5 -2 0
3001 724 2 0.5564 -0.6261956129839613 3.028829358368286 -13.05683021798437 5 -2 0
1678 283 2 0.5564 8.524007076881922 5.956085777865631 -5.736307362856613 0 -3 0
3266 813 1 -1.1128 -1.3576843940852577 0.22899988414121267 -2.3284670324413135 -3 4 0
3219 797 2 0.5564 -1.8402134422473535 4.75434297976301 -4.601366420064078 -2 1 0
4415 1196 1 -1.1128 3.6768536491447192 6.3822581869675155 -7.374725679362541 -3 -4 0
4416 1196 2 0.5564 4.4970351202973635 6.6944499309601175 -7.756927249265339 -3 -4 0
3584 919 1 -1.1128 3.5124349889590354 6.075516349359221 -12.296748427211535 1 2 0
2945 706 1 -1.1128 2.9302328568214486 2.8548949915948607 -10.17165861275071 0 3 0
3442 871 2 0.5564 3.5858963802184336 3.180216611863852 -11.831469605479803 3 -1 0
3440 871 1 -1.1128 3.727899115821049 3.237531897914765 -12.776341633384064 3 -1 0
3441 871 2 0.5564 3.649064174576675 4.17062809418254 -12.974706516482406 3 -1 0
3233 802 1 -1.1128 1.3103924152582316 2.0530488849982085 -12.427326708155269 0 -1 0
1492 221 2 0.5564 1.3040395676790684 4.598303619226229 -8.534266487439012 -5 1 0
1683 285 2 0.5564 -1.2511053227153452 4.095673195466446 -8.717580180893156 1 -1 0
2289 487 2 0.5564 11.509002511925107 -0.6937326378135991 -11.717185184262256 1 1 0
2899 690 2 0.5564 13.71815007033956 7.634482501580165 -0.6231916250400064 3 -2 0
1737 303 2 0.5564 0.7739179719723849 6.396728990060647 -10.85567117077728 1 0 0
1736 303 1 -1.1128 1.1233448168078717 7.207499382344309 -11.22551596914615 1 0 0
1568 247 1 -1.1128 8.43473739226006 1.762381623373322 -4.9322205278926905 5 1 0
3123 765 2 0.5564 -1.0284920833689568 3.050547394452239 -10.911242730960234 -1 0 0
2946 706 2 0.5564 2.5177003441928427 3.662135953789001 -9.864391310484859 0 3 0
1490 221 1 -1.1128 1.6354203038622306 5.2380730843623065 -9.164436779719429 -5 1 0
1491 221 2 0.5564 2.257236453582411 5.767179083131208 -8.664811965300007 -5 1 0
2947 706 2 0.5564 3.2720402637011206 2.4429526279486513 -9.378120039040327 0 3 0
1202 125 1 -1.1128 5.015544123156924 5.685339596374323 -9.925183688345754 3 -1 0
1204 125 2 0.5564 5.838020788972281 5.4017304434770255 -10.32434706832991 3 -1 0
4263 1145 2 0.5564 0.7709315673616745 7.477547703075287 -6.617512708512636 -2 0 0
3122 765 1 -1.1128 -0.45863214923770307 3.145653695390777 -10.14806021460179 -1 0 0
3235 802 2 0.5564 1.1242688113077828 2.420588394980248 -11.563321330564172 0 -1 0
2197 456 2 0.5564 11.855020565853616 6.055076337575274 -2.26565274577439 0 2 0
1203 125 2 0.5564 4.396065120278721 5.72435631643382 -10.653851685882007 3 -1 0
2219 464 1 -1.1128 3.3900817529250613 -0.5761421582084068 -12.631113687711201 0 0 0
3234 802 2 0.5564 2.129892505395726 2.4696917131611076 -12.693898841567119 0 -1 0
1578 250 2 0.5564 3.97777773378806 7.205018000880139 -3.5321169890584168 2 1 0
1340 171 1 -1.1128 6.250741473687348 7.447176887065072 -7.875974966330457 4 -2 0
2220 464 2 0.5564 3.8806154216592015 0.22502662317365335 -12.447433419307004 0 0 0
2403 525 2 0.5564 13.425944819318653 1.4568088021772492 -10.286096385716721 1 -2 0
3398 857 1 -1.1128 7.484412068704012 0.3151637911961929 -13.186199127638046 -2 1 0
2644 605 2 0.5564 0.14718417152724897 0.30289122628433285 -8.95243402273188 4 0 0
1137 103 2 0.5564 4.993875282059229 7.743246701191868 -1.6176401043833828 1 0 0
1391 188 1 -1.1128 9.498823506877693 3.471282384484098 -2.9353818707372077 -1 -2 0
1959 377 2 0.5564 11.052139772777222 0.9052241804445789 -2.0821702119484784 4 1 0
1772 315 1 -1.1128 1.477298052652589 3.164035263668652 -7.100206617907492 0 1 0
1773 315 2 0.5564 0.9736557185967519 2.4192434290254194 -7.428634535281423 0 1 0
4378 1183 2 0.5564 0.924220777918642 7.298380363501543 -0.47607485051041887 2 0 0
2402 525 1 -1.1128 13.32450814180207 1.71220562372876 -9.369190512929052 1 -2 0
3124 765 2 0.5564 -0.5705371564335301 2.328843532671134 -9.661714419453512 -1 0 0
1389 187 2 0.5564 13.156460266066258 2.9454813237866566 -4.092488078711417 0 -7 0
2196 456 2 0.5564 12.177113748793321 7.499395561579518 -1.94612485062952 0 2 0
1960 377 2 0.5564 11.850049312432569 -0.38115667334059017 -2.103617770733256 4 1 0
1297 156 2 0.5564 5.695296089422425 3.170492662065333 -12.734830874424432 -1 0 0
3791 988 1 -1.1128 5.895397131560999 0.6314526990283769 -10.953209574707548 0 -2 0
1393 188 2 0.5564 10.416434460100703 3.48523770265373 -3.2074673720545994 -1 -2 0
2460 544 2 0.5564 13.260974005848366 6.330125066850367 -11.253657392867368 1 -1 0
1935 369 2 0.5564 8.229753510128598 -0.13498127659480616 -8.731947539037419 -2 -2 0
3069 747 2 0.5564 14.100472732549573 4.535457664817546 -12.383653604045946 -6 1 0
3490 887 2 0.5564 10.858293908161228 3.556759879229674 -13.465889902787707 3 5 0
2807 660 1 -1.1128 10.893398604980346 1.8725167280763722 -7.819300333078381 -1 2 0
1423 198 2 0.5564 7.134726186024259 6.105936622726708 -12.033134992288586 4 1 0
1422 198 2 0.5564 7.003616422171633 5.369616772907452 -13.349394988045367 4 1 0
2809 660 2 0.5564 11.676058328883432 1.5655842275622918 -8.276982226377296 -1 2 0
3400 857 2 0.5564 7.052720993256366 0.9439731656376378 -13.764537015168921 -2 1 0
1421 198 1 -1.1128 7.424360194029693 6.128446999710409 -12.945186725291382 4 1 0
3327 833 2 0.5564 7.4303784513598305 3.8483127394440757 -9.612297246191881 4 -2 0
3328 833 2 0.5564 8.332918148414098 4.706810211416862 -10.472704080568064 4 -2 0
3326 833 1 -1.1128 7.4300912782536335 4.3982384540760835 -10.39576005881355 4 -2 0
1296 156 2 0.5564 6.932321207655997 3.779541003093329 -12.109750407204 -1 0 0
1295 156 1 -1.1128 6.601040044123695 3.4116635434350595 -12.928989287640809 -1 0 0
2195 456 1 -1.1128 11.567363551991034 6.951223003333852 -2.4400325322621246 0 2 0
3399 857 2 0.5564 6.98676140846502 0.35915012922872963 -12.369715014086784 -2 1 0
2765 646 1 -1.1128 12.854926628034075 6.763646547892819 -7.462677592085289 -3 2 0
2817 663 2 0.5564 10.384443992989713 4.791207461298027 -11.400198729500069 1 -2 0
2808 660 2 0.5564 11.042033317940254 2.8094372478178435 -7.691543423630698 -1 2 0
3488 887 1 -1.1128 10.879636370428646 4.462205684221773 -13.156140393191883 3 5 0
2766 646 2 0.5564 12.286637519039353 7.456935616225355 -7.127066156201271 -3 2 0
3489 887 2 0.5564 11.810172316193608 4.654356106474176 -13.040325035368022 3 5 0
3267 813 2 0.5564 -1.029122556569389 -0.5737491432672575 -2.733290210688515 -3 4 0
2496 556 2 0.5564 9.002598032273085 1.58468701329512 -12.675999073759398 0 1 0
2459 544 1 -1.1128 13.102139070862336 5.819724631054031 -12.047695607982536 1 -1 0
1539 237 2 0.5564 13.426619318630726 0.7473309818510615 -12.074785869726306 1 -2 0
2818 663 2 0.5564 10.264982528600319 6.044609220964986 -10.559598668739067 1 -2 0
2816 663 1 -1.1128 10.018915601056499 5.119777423153847 -10.57882006993237 1 -2 0
2777 650 1 -1.1128 11.576833752014762 4.721208149586808 -0.3499579147796033 2 -1 0
2461 544 2 0.5564 12.59313255920031 6.403337767127623 -12.610316412456735 1 -1 0
1577 250 1 -1.1128 4.836589969158464 6.798836031995216 -3.4151115949522666 2 1 0
2221 464 2 0.5564 2.514959629397115 -0.2719153507906839 -12.871613940239907 0 0 0
1676 283 1 -1.1128 8.240043577010152 5.852372469565172 -6.644516054654275 0 -3 0
2186 453 1 -1.1128 4.193181799648203 4.935762929016887 -0.4879146151667106 5 6 0
3792 988 2 0.5564 6.278060919204992 1.2274443453384036 -10.3093192245232 0 -2 0
2093 422 1 -1.1128 8.957982039188124 -0.5887179731043969 -3.792125779155712 -1 3 0
2767 646 2 0.5564 12.308363104673193 5.977940258064613 -7.449556665699196 -3 2 0
3724 965 2 0.5564 10.47056380089299 7.681871692346576 -3.484272787010041 -1 1 0
2495 556 1 -1.1128 9.694945033109331 2.0126987046372773 -12.17231715517695 0 1 0
3793 988 2 0.5564 5.537001809728514 -0.08696777990933635 -10.431998824205955 0 -2 0
2497 556 2 0.5564 9.293717761820663 2.1996797175687175 -11.32361988738932 0 1 0
2844 672 2 0.5564 8.527357073285621 -0.5224263921857617 -0.6598860982088549 0 2 0
1341 171 2 0.5564 6.407678424343609 7.51885936286117 -8.817499033876208 4 -2 0
2643 605 2 0.5564 -0.8223288370748211 0.9683874761569543 -7.998988481414874 4 0 0
1740 304 2 0.5564 5.938823303160961 3.9788554368877787 -7.409794839184497 -1 -5 0
1739 304 1 -1.1128 5.727162112783289 4.471940055794206 -6.61713968870603 -1 -5 0
3268 813 2 0.5564 -0.5842650923076665 0.7854532945769533 -2.2367267409941918 -3 4 0
1232 135 1 -1.1128 0.39836352350338583 2.3553017495518613 -1.9006451943242626 -3 2 0
1388 187 1 -1.1128 13.509623996765596 2.1150271504298064 -4.411636606714382 0 -7 0
3737 970 1 -1.1128 -0.7355478061063543 5.975818642623743 -5.768192866452491 -5 0 0
3609 927 2 0.5564 6.5573866578705085 1.73006837434223 -5.398544535076549 -4 -2 0
3608 927 1 -1.1128 5.672926147884612 1.364172146933389 -5.389463624817304 -4 -2 0
1682 285 1 -1.1128 -1.7716780525613307 4.713935588585938 -8.204753518676824 1 -1 0
1234 135 2 0.5564 0.22868178740341252 2.934351561776523 -1.1575825997903293 -3 2 0
4320 1164 2 0.5564 3.08796685405662 4.562905407284507 -1.9710115041088043 -2 -5 0
4376 1183 1 -1.1128 1.8669931024056707 7.188230789214949 -0.35244655671337477 2 0 0
4319 1164 1 -1.1128 2.639105551804079 4.009018872189142 -2.609736539928701 -2 -5 0
1233 135 2 0.5564 1.1291960561600416 2.7658174692721174 -2.362807117711527 -3 2 0
1213 128 2 0.5564 4.408358727776167 1.6077712693516713 -6.73978862385053 5 2 0
1774 315 2 0.5564 2.3877053252127243 2.8699033884985896 -7.129861369921779 0 1 0
3975 1049 2 0.5564 5.218546873046261 4.206996257124861 -4.594781541177831 -3 5 0
1741 304 2 0.5564 5.149126284177075 5.173130274834211 -6.917874991424504 -1 -5 0
1212 128 2 0.5564 3.557536721530449 0.8374002556520501 -7.726971049350581 5 2 0
3974 1049 1 -1.1128 5.074957276325086 3.479708824943228 -3.9892503977038913 -3 5 0
1211 128 1 -1.1128 4.020613487694714 1.6673308630282149 -7.61291065829446 5 2 0
1617 263 2 0.5564 12.999652209496881 4.44349674357881 -2.6586724473711123 1 4 0
1569 247 2 0.5564 8.568920606003529 0.9150290964930851 -4.507694833210517 5 1 0
3976 1049 2 0.5564 4.295636010124369 3.730616551280259 -3.4933300477596716 -3 5 0
3806 993 1 -1.1128 6.788394899008727 5.170569536195312 -0.9887685245318136 -2 0 0
3968 1047 1 -1.1128 2.3565120423145536 0.7103615569267397 -0.8979292912225283 1 2 0
988 53 2 0.5564 7.1060444546256 5.959620567047449 -3.22415531161204 -2 -1 0
1618 263 2 0.5564 12.745062713648522 4.968239439306023 -4.055713957213316 1 4 0
3807 993 2 0.5564 7.327800982083008 4.7450470478113145 -1.6552550949762606 -2 0 0
987 53 2 0.5564 8.537622781426006 6.450762430847987 -3.1886489966086873 -2 -1 0
4321 1164 2 0.5564 2.2726876745901357 4.623992132617547 -3.2451745158705205 -2 -5 0
986 53 1 -1.1128 7.9604339067112315 5.83229274146692 -3.636512796349802 -2 -1 0
3969 1047 2 0.5564 2.647237248019474 0.154213579771167 -1.6207093112563513 1 2 0
3738 970 2 0.5564 0.09779863774930594 5.602496820884985 -5.481136782981072 -5 0 0
3970 1047 2 0.5564 1.717994030088168 1.3037054867016746 -1.2934918191717582 1 2 0
2911 694 2 0.5564 5.786911256520936 1.7632097217765892 -1.222051713760599 -4 4 0
3585 919 2 0.5564 2.6663808798408377 6.509061648015366 -12.18510038486377 1 2 0
3304 825 2 0.5564 1.6262435920108442 4.542075353915076 -5.935105224944716 2 3 0
3610 927 2 0.5564 5.1738453773724595 1.9567109904838667 -4.827280813190126 -4 -2 0
3302 825 1 -1.1128 1.923264174333016 5.131058084809976 -5.241479852601786 2 3 0
3303 825 2 0.5564 2.6118982810387696 5.655313028895644 -5.650348188328771 2 3 0
3783 985 2 0.5564 10.228698335803724 7.510196775853692 -13.433754761466275 0 -1 0
2271 481 2 0.5564 3.9178757819625476 1.693755031105372 -0.49234112819891707 -2 -2 0
3739 970 2 0.5564 -0.884796386400533 5.593176018364915 -6.63279854315597 -5 0 0
1342 171 2 0.5564 6.951037660175924 6.876965658071033 -7.558677146546131 4 -2 0
3808 993 2 0.5564 7.327679173927128 5.155592071600469 -0.19808274696545672 -2 0 0
2909 694 1 -1.1128 6.381532718657249 1.1551885801298123 -1.6613400047490445 -4 4 0
1167 113 2 0.5564 5.713589469167177 2.0684455057449025 -8.185346140904668 -4 4 0
2290 487 2 0.5564 11.07631315435085 0.5980572080652702 -12.377455281106064 1 1 0
2910 694 2 0.5564 6.060697078870546 1.1145149432477566 -2.562252155583076 -4 4 0
2778 650 2 0.5564 11.081075644905377 5.508722469144527 -0.12572786213530154 2 -1 0
2384 519 1 -1.1128 -0.09392402811523784 -0.4322206181425795 -12.390964870182497 -2 1 0
2920 697 2 0.5564 9.45279399728637 3.2326606196696277 -1.2806648082709504 2 2 0
3586 919 2 0.5564 4.08910293933834 6.758955674731051 -12.638215490424203 1 2 0
1936 369 2 0.5564 9.065783459191302 1.0969204574508313 -8.45740757644838 -2 -2 0
2984 719 1 -1.1128 10.769172991038156 4.810542404559157 -7.678597530928739 6 0 0
2985 719 2 0.5564 10.5583618441769 4.92070529534654 -8.605774834020597 6 0 0
1579 250 2 0.5564 5.420514292595931 7.305266788016616 -3.97973066417568 2 1 0
1673 282 1 -1.1128 13.786552941556259 2.011945534747572 -0.45824964813282454 -6 1 0
1166 113 1 -1.1128 6.406305522965416 2.5402166841057707 -8.647740507789345 -4 4 0
2095 422 2 0.5564 9.524129907859901 -0.5411894308575265 -4.56248442490669 -1 3 0
921 31 2 0.5564 11.07404560040126 0.7104144565787441 -5.885412859628904 -4 0 0
1337 170 1 -1.1128 -0.8212690807074929 7.597696727175466 -0.9139916524094474 1 0 0
2845 672 2 0.5564 7.782961699748485 0.7726311747788533 -0.9060527762242012 0 2 0
1392 188 2 0.5564 9.186459873716082 4.361181178807401 -3.0989157644918532 -1 -2 0
1675 282 2 0.5564 12.936824461196482 1.8551069336494914 -0.8700734777475911 -6 1 0
1570 247 2 0.5564 8.761171285861494 2.402169552069377 -4.299492187062823 5 1 0
922 31 2 0.5564 12.029117057491796 0.808962030761296 -4.7149330675521535 -4 0 0
2986 719 2 0.5564 9.954933241624467 5.019655768291342 -7.22086324364495 6 0 0
2385 519 2 0.5564 0.42051178000880085 0.36048793099220894 -12.543285725055151 -2 1 0
2919 697 2 0.5564 9.326298246054513 2.004409566493251 -0.4047115177197942 2 2 0
1934 369 1 -1.1128 8.3167626640641 0.7886936862014567 -8.96750451085022 -2 -2 0
1677 283 2 0.5564 7.467444560992712 5.289760788581916 -6.591634065254549 0 -3 0
920 31 1 -1.1128 11.466634635797583 0.19194822026576147 -5.183059284802581 -4 0 0
2918 697 1 -1.1128 9.584648326620126 2.9258444637075023 -0.38360805665232467 2 2 0
1168 113 2 0.5564 7.153549935148542 1.9421331124337537 -8.635296972437189 -4 4 0
2796 656 2 0.5564 13.5358646984159 6.1693858250743165 -6.004181674823129 2 3 0
2843 672 1 -1.1128 8.50739384949336 0.39964920894346545 -0.40374154268256357 0 2 0
1616 263 1 -1.1128 12.349266317853443 4.442011832648293 -3.3609749774873063 1 4 0
2779 650 2 0.5564 10.948318971047874 4.0059450537787 -0.251955387846195 2 -1 0
1958 377 1 -1.1128 11.947231245958195 0.5688678802411312 -2.0384908637614494 4 1 0
2642 605 1 -1.1128 0.015257410018489476 1.1021930246309686 -8.442585538763499 4 0 0
2386 519 2 0.5564 -1.0033781738328669 -0.15113413493761368 -12.491545256597021 -2 1 0
2288 487 1 -1.1128 11.851817257289852 0.07662909298449119 -12.170235230480007 1 1 0
4417 1196 2 0.5564 3.1823873708641157 7.179295466443273 -7.183754434941746 -3 -4 0
1338 170 2 0.5564 -1.2095118221161536 6.724808997624983 -0.9737390556411529 1 0 0
2187 453 2 0.5564 3.9840200437871633 4.046141537127699 -0.2032084630898605 5 6 0
2188 453 2 0.5564 5.1365202388588465 4.920473410323299 -0.6495071490942167 5 6 0
4221 1131 2 0.5564 7.201532386553607 7.588198732986131 -1.273510440142657 0 2 0
3820 997 2 0.5564 -1.1256438480943471 4.8929744083959985 -0.7171145726152124 0 -4 0
2128 433 2 0.5564 9.81192752269761 7.359759637703946 -0.662952890782083 0 -1 0
3000 724 2 0.5564 -1.7557643026946472 4.0022201530291985 -12.79513651721051 5 -2 0
1138 103 2 0.5564 4.353989236937837 7.072366219107731 -0.4208274232767087 1 0 0
3784 985 2 0.5564 8.817191308194488 7.175865060266925 -13.000433673418614 0 -1 0
2106 426 2 0.5564 14.068822372520494 6.778619484354033 -8.977394861878993 2 -4 0
1883 352 1 -1.1128 10.71647040053388 7.751087976665269 -10.491549668812315 2 -2 0
2551 574 2 0.5564 5.827568930528797 -0.37482657555740134 -5.448732422947566 0 1 0
2404 525 2 0.5564 13.712563298535997 2.5857797857962708 -9.319054440023438 1 -2 0
1738 303 2 0.5564 1.4611943122351505 7.689537209820056 -10.470710504716804 1 0 0
4340 1171 1 -1.1128 0.8332847851254924 0.5755252253464741 5.868987636011065 2 -2 0
4426 1199 2 0.5564 2.3165292313146155 0.7060704692575418 7.0298365112191465 2 -2 0
4424 1199 1 -1.1128 2.9363238391163105 0.80627037635027 7.752367600518134 2 -2 0
4425 1199 2 0.5564 3.5818472163571644 1.434929675604538 7.429378356838202 2 -2 0
3947 1040 1 -1.1128 1.5687057489695213 1.4966992520165807 3.2812312503369907 -2 -2 0
3949 1040 2 0.5564 1.8386115139962906 0.9604430703057942 2.5357026817506325 -2 -2 0
3948 1040 2 0.5564 1.6603159340430427 0.9184126582592109 4.038480231195419 -2 -2 0
4342 1171 2 0.5564 -0.01880643428011728 1.0071657275628947 5.806862838153555 2 -2 0
1097 90 1 -1.1128 0.3183536768196957 4.176013331521312 0.156466351134094 2 1 0
3727 966 2 0.5564 4.182284598632277 4.649904053927661 3.136570353544145 -2 2 0
3725 966 1 -1.1128 4.489611436687166 5.379061171346818 2.597945432335735 -2 2 0
3726 966 2 0.5564 4.329885576040898 5.0962864414439135 1.6975240808476142 -2 2 0
2348 507 1 -1.1128 1.8124401225455722 4.812623820573127 5.5243970621060425 -1 3 0
1099 90 2 0.5564 0.05488690872437481 3.8228567378033076 1.0062322987115215 2 1 0
2110 427 2 0.5564 -0.1259935250623997 -0.03366595414549503 16.328298645319876 -1 -1 0
1292 155 1 -1.1128 -1.1506298402060586 6.428148370719501 12.405428205656124 -2 0 0
1429 200 2 0.5564 2.755122762433134 3.8981611583700584 4.592894619238012 1 1 0
1428 200 2 0.5564 2.825941139084408 2.6296946226226767 3.769564192243191 1 1 0
1427 200 1 -1.1128 3.362820240036356 3.353147353120489 4.092997781034197 1 1 0
3426 866 2 0.5564 0.5031300120199403 2.747838321145132 2.9530773338487917 -1 -1 0
1659 277 2 0.5564 11.038915425319743 -0.25981017115556276 12.961915474540659 0 -1 0
3425 866 1 -1.1128 -0.3250951034315403 3.17424892482623 2.732964812546752 -1 -1 0
2181 451 2 0.5564 4.968704986428971 7.779755982184157 7.560060242361657 5 3 0
2349 507 2 0.5564 1.3900028018330717 5.670852389802926 5.559399326062634 -1 3 0
2350 507 2 0.5564 2.6026465268483645 4.912262593347598 6.055325533195875 -1 3 0
3025 732 2 0.5564 -1.8233385443878234 2.2167356900434676 12.953672013176778 0 -1 0
4265 1146 1 -1.1128 4.895464969187491 0.20705112873004566 2.1540580519076897 -2 -2 0
2126 433 1 -1.1128 9.920727816265233 7.115499027355189 0.25614004860010153 0 -1 0
2828 667 1 -1.1128 5.953993666161179 0.39115635359139955 5.363316058758706 1 2 0
4380 1184 2 0.5564 4.2216720189910015 2.7089915050397475 5.388011183526901 0 3 0
2630 601 1 -1.1128 14.03114690981906 2.8408949032668085 12.152986965090578 -1 -2 0
2830 667 2 0.5564 5.611052617683793 -0.45758548502899 5.083559660751896 1 2 0
4369 1180 2 0.5564 -1.3240560174172942 4.872847444819292 2.6958551565840616 1 1 0
1708 293 2 0.5564 8.385362719129098 6.741166388329794 16.236046773077383 2 -2 0
1893 355 2 0.5564 -0.5806817167444573 2.96578438442267 6.295546700724244 -3 1 0
2272 481 2 0.5564 4.66070952358513 1.6139539422884899 0.8243700724636256 -2 -2 0
2908 693 2 0.5564 3.8113792297499 0.963196985476702 16.754978439156037 2 4 0
3240 804 2 0.5564 8.965063022929272 5.791566060560975 1.0934139172930073 0 0 0
2688 620 2 0.5564 7.5575083795536875 5.180122102740537 2.9888173792561687 0 2 0
1062 78 2 0.5564 1.006487132815398 -0.1295301884962069 10.113752897735552 -2 -3 0
4368 1180 2 0.5564 -0.718299360830884 5.898424248530491 3.630278548897689 1 1 0
2544 572 2 0.5564 13.787216450862243 3.6404638741262705 7.527115573780526 3 -1 0
1476 216 2 0.5564 12.939384457559145 6.815246314328685 3.61121727118971 1 -1 0
1615 262 2 0.5564 12.778270353987399 -0.24238004480731284 2.6406449848007068 -2 1 0
1271 148 1 -1.1128 6.883695657389906 6.320838906880506 17.073797192017807 -1 -3 0
4267 1146 2 0.5564 5.7629171137110555 0.2755520736006821 2.5528965529463328 -2 -2 0
2964 712 2 0.5564 13.588461922086445 2.882461446159987 1.3608684461638314 -2 4 0
2545 572 2 0.5564 13.546843777305714 3.674490521380398 9.021425735858946 3 -1 0
1098 90 2 0.5564 1.0699629729110371 4.735639543430737 0.3517495464270796 2 1 0
4343 1172 1 -1.1128 11.705243258340083 5.293177524612536 3.052955776496133 0 -1 0
3658 943 2 0.5564 8.055161381416411 0.19037162536208924 1.4387977492060613 0 2 0
2687 620 1 -1.1128 7.0753091003173 5.383588779613171 3.790267275497168 0 2 0
2689 620 2 0.5564 6.192215416340892 5.599593893486358 3.490730601931173 0 2 0
3657 943 2 0.5564 8.055807228484877 0.7119286574720006 2.86002079555906 0 2 0
1710 294 2 0.5564 10.586539892001381 3.0241329064459657 4.305894300699226 1 -6 0
4381 1184 2 0.5564 5.142326097824035 1.6662513007238318 5.985493004040309 0 3 0
4192 1121 2 0.5564 8.439224518676989 1.010824054573284 8.244041920021925 -2 -3 0
4190 1121 1 -1.1128 9.25512520964365 0.5700797819620783 8.481284948863706 -2 -3 0
2907 693 2 0.5564 3.076795558194404 0.018289802523711016 15.827919390668937 2 4 0
3801 991 2 0.5564 10.352032492041635 1.1542514220319298 4.419960198416307 5 2 0
2864 679 1 -1.1128 7.660193286571739 2.807427819251964 7.820586906163387 3 2 0
4345 1172 2 0.5564 11.45139704531746 4.675383225466238 3.738613580171155 0 -1 0
3800 991 1 -1.1128 10.100112008035781 1.5031025024860727 3.5649331759514213 5 2 0
2865 679 2 0.5564 6.911163894224741 3.2111457777340844 8.258992047031882 3 2 0
4379 1184 1 -1.1128 4.691292780006166 2.485019210116025 6.191457364448816 0 3 0
3802 991 2 0.5564 10.76182783335213 1.1631524423274988 2.9626050613954 5 2 0
2866 679 2 0.5564 7.686656292246696 3.2233004203207916 6.958852609954572 3 2 0
3427 866 2 0.5564 -0.9585192554634611 2.4581782822900284 2.6855443353668935 -1 -1 0
1709 294 1 -1.1128 10.943655074358736 3.68826365647558 4.895497840545742 1 -6 0
3656 943 1 -1.1128 7.617976224838124 0.08539541095580827 2.283832739899956 0 2 0
1711 294 2 0.5564 10.188951400389703 4.224877405525846 5.137779546471677 1 -6 0
1239 137 2 0.5564 -0.7222186168635143 3.604754319286195 13.87457239878444 4 1 0
3850 1007 2 0.5564 8.539935108426178 5.391676894372315 6.591432472344758 1 1 0
992 55 1 -1.1128 11.582134040149692 0.10347816674684976 6.33790158286859 -1 -1 0
2722 631 2 0.5564 12.946875426518826 1.9855031690139313 6.57293980803885 -1 2 0
2720 631 1 -1.1128 13.128380940207993 2.7996213644364927 6.103366132941803 -1 2 0
2721 631 2 0.5564 12.268925992614822 3.1073629628118904 5.815502469756357 -1 2 0
4344 1172 2 0.5564 10.987519502058252 5.925758011717857 3.0221803696752803 0 -1 0
2963 712 1 -1.1128 13.20744208765914 2.925269906229911 2.237922798076584 -2 4 0
4022 1065 1 -1.1128 7.925653376407511 6.641747569524457 7.6245767264905755 -3 4 0
1240 137 2 0.5564 -1.3815293261981796 4.729013042386567 13.104345505388684 4 1 0
489 2 4 0 12.2802 4.254 20.3563331933874 0 0 0
2906 693 1 -1.1128 3.472076176579199 0.0699553937834635 16.698158894223734 2 4 0
1614 262 2 0.5564 12.610906324338883 1.1753772204877369 2.136808490082383 -2 1 0
4024 1065 2 0.5564 7.994305586036266 6.366328440439317 8.538723126176576 -3 4 0
1238 137 1 -1.1128 -1.572266901300437 3.905368851385861 13.553192998299119 4 1 0
2965 712 2 0.5564 12.67097554439011 3.7179490910146304 2.2280920974464964 -2 4 0
1613 262 1 -1.1128 12.15135778316111 0.33891440855447913 2.2101665646859354 -2 1 0
994 55 2 0.5564 10.817328393832408 0.23930183043896835 6.897238227752883 -1 -1 0
3523 898 2 0.5564 1.8758629672443923 -0.30991215291631985 0.5917657329723512 3 -3 0
490 2 4 0 11.0522 4.963 20.3563331933874 0 0 0
1061 78 1 -1.1128 1.4755368550927384 0.7027827739716348 10.054724437822113 -2 -3 0
1140 104 2 0.5564 10.500364751274054 7.063368079714373 11.703106699672244 -2 4 0
1063 78 2 0.5564 1.9385034210049639 0.6585445273441242 9.218097668648909 -2 -3 0
4299 1157 2 0.5564 8.607862984203871 6.533029635012587 3.3176473435344858 -1 2 0
1880 351 1 -1.1128 0.24807164268150236 7.308927888083374 4.785235752438142 4 3 0
3261 811 2 0.5564 0.1642782045609929 1.9336006718548062 9.609097931874942 1 2 0
1900 357 2 0.5564 6.887635139956548 -0.038528950852278226 17.843547324290082 1 0 0
1788 320 2 0.5564 13.367724531526227 1.0512707209951462 14.999952414669904 1 3 0
4219 1130 2 0.5564 5.038356959568503 4.1582410414923014 10.275162637945263 3 0 0
4290 1154 2 0.5564 2.7393567383411805 0.9535416705125304 13.069408040068568 2 1 0
4341 1171 2 0.5564 0.673553327458646 -0.31639556104526423 5.560449341227819 2 -2 0
439 2 4 0 11.0522 2.127 20.3563331933874 0 0 0
1898 357 1 -1.1128 7.523690046526654 0.39173636574593573 17.272111908919225 1 0 0
1894 355 2 0.5564 0.6205409516530073 3.876306743337891 6.436658902710273 -3 1 0
2988 720 2 0.5564 -1.4889955254668066 6.4660161917418995 14.764310428270447 0 -2 0
3939 1037 2 0.5564 13.073094216129011 7.688892238058577 10.179377941396117 -2 2 0
4067 1080 1 -1.1128 1.6705548396550145 6.93358513905053 14.697098698846174 -2 5 0
3260 811 1 -1.1128 -0.3457689632564721 2.738157732399498 9.515426112205745 1 2 0
3911 1028 1 -1.1128 3.6255176395221693 4.943692212795553 7.622989742758982 -5 2 0
3912 1028 2 0.5564 4.214422565410391 4.192748471217344 7.548775834322565 -5 2 0
3262 811 2 0.5564 -0.097911023163728 3.080826292677623 8.656716092412829 1 2 0
3913 1028 2 0.5564 4.152410556201181 5.690818851604368 7.339402743579522 -5 2 0
3023 732 1 -1.1128 -1.7300072582567114 1.3611459298483288 12.534754200253312 0 -1 0
1789 320 2 0.5564 12.513190395472865 2.2545925571267706 14.662780731683554 1 3 0
1074 82 2 0.5564 0.08526581614009951 2.105661829819713 13.145128981068957 0 -1 0
2706 626 2 0.5564 3.4912392905738514 5.5847294169829516 9.768209676973648 1 1 0
2707 626 2 0.5564 3.539619949137053 6.084471010091137 11.196431489717458 1 1 0
2705 626 1 -1.1128 3.5520498211020928 5.28228880695051 10.674336462461255 1 1 0
3552 908 2 0.5564 1.7429276817357895 5.35853076046881 11.223709707174613 2 4 0
1073 82 1 -1.1128 0.7779863167897114 2.6048547877772337 13.577768460113205 0 -1 0
3239 804 1 -1.1128 8.391455708208422 5.069504676435603 1.3500056942623084 0 0 0
3553 908 2 0.5564 0.8066220581787769 4.1703983186902995 11.28347884112541 2 4 0
1075 82 2 0.5564 1.5169515817036474 2.5657877224656542 12.970614103177752 0 -1 0
3551 908 1 -1.1128 0.9973433661003427 5.006032704014735 11.709595420265408 2 4 0
429 2 4 0 7.36814 0 20.3563331933874 0 0 0
3079 750 2 0.5564 5.2985254944706295 4.8966939281774735 13.491709915630544 0 0 0
3077 750 1 -1.1128 5.253400788673933 5.846104609698785 13.604924920824779 0 0 0
4068 1080 2 0.5564 0.7288960011643129 6.8203528955052635 14.82630970632901 -2 5 0
4218 1130 2 0.5564 5.697803859418466 2.7978131790503262 10.196001560580905 3 0 0
4217 1130 1 -1.1128 5.745157904347943 3.683987065906601 9.837267176547163 3 0 0
3364 845 2 0.5564 2.231805801504207 7.356209762785845 12.689056558414965 -2 0 0
1865 346 1 -1.1128 7.742037457280062 6.89222444207865 13.096761459010017 -1 1 0
494 2 4 0 13.5083 4.963 20.3563331933874 0 0 0
2987 720 1 -1.1128 -0.9131942458745137 6.376229743006787 15.523667603898769 0 -2 0
4289 1154 1 -1.1128 2.913101669912945 1.4819450055909202 12.29041175683828 2 1 0