LAMMPS data file via write_data, version 2 Aug 2023, timestep = 7250000, units = real

5032 atoms
4 atom types
2800 bonds
1 bond types
1400 angles
1 angle types
0 impropers
1 improper types

-1.8420299999999998 30.08661 xlo xhi
-0.709 33.323 ylo yhi
-150 150 zlo zhi

Masses

1 15.9994
2 1.00794
3 12.0107
4 12.0107

Pair Coeffs # lj/cut/tip4p/long

1 0.1852 3.1589
2 0 0
3 0.0859 3.3997
4 0.0859 3.3997

Bond Coeffs # harmonic

1 5000 0.9572

Angle Coeffs # harmonic

1 500 104.52

Atoms # full

1 1 3 0 0 0 -19.086524130372066 0 0 0
2 1 3 0 -1.22802 0.709 -19.086524130372066 0 0 0
3 1 3 0 -1.22802 2.127 -19.086524130372066 0 0 0
4 1 3 0 0 2.836 -19.086524130372066 0 0 0
5 1 3 0 2.45605 0 -19.086524130372066 0 0 0
6 1 3 0 1.22802 0.709 -19.086524130372066 0 0 0
7 1 3 0 1.22802 2.127 -19.086524130372066 0 0 0
8 1 3 0 2.45605 2.836 -19.086524130372066 0 0 0
9 1 3 0 4.9121 0 -19.086524130372066 0 0 0
10 1 3 0 3.68407 0.709 -19.086524130372066 0 0 0
11 1 3 0 3.68407 2.127 -19.086524130372066 0 0 0
12 1 3 0 4.9121 2.836 -19.086524130372066 0 0 0
14 1 3 0 6.14012 0.709 -19.086524130372066 0 0 0
15 1 3 0 6.14012 2.127 -19.086524130372066 0 0 0
53 1 3 0 0 4.254 -19.086524130372066 0 0 0
54 1 3 0 -1.22802 4.963 -19.086524130372066 0 0 0
55 1 3 0 -1.22802 6.381 -19.086524130372066 0 0 0
56 1 3 0 0 7.09 -19.086524130372066 0 0 0
57 1 3 0 2.45605 4.254 -19.086524130372066 0 0 0
58 1 3 0 1.22802 4.963 -19.086524130372066 0 0 0
59 1 3 0 1.22802 6.381 -19.086524130372066 0 0 0
60 1 3 0 2.45605 7.09 -19.086524130372066 0 0 0
61 1 3 0 4.9121 4.254 -19.086524130372066 0 0 0
62 1 3 0 3.68407 4.963 -19.086524130372066 0 0 0
63 1 3 0 3.68407 6.381 -19.086524130372066 0 0 0
64 1 3 0 4.9121 7.09 -19.086524130372066 0 0 0
66 1 3 0 6.14012 4.963 -19.086524130372066 0 0 0
67 1 3 0 6.14012 6.381 -19.086524130372066 0 0 0
1646 273 1 -1.1128 5.535660451967999 4.581307000602294 -15.833355045187222 6 -4 0
1895 356 1 -1.1128 5.477776025909067 1.54432082562717 -15.090135501020367 -1 0 0
1896 356 2 0.5564 6.041737577526163 2.2658831321498543 -15.368576080703367 -1 0 0
1092 88 2 0.5564 1.4900547338480392 5.560933664855574 -15.410972487509529 1 -1 0
1897 356 2 0.5564 4.5907190159039715 1.840566618761646 -15.294100890462067 -1 0 0
1220 131 1 -1.1128 -0.31738879720539226 1.8676373290250705 -15.144012089871865 -1 -3 0
1222 131 2 0.5564 -0.38911169729013984 0.919236019367727 -15.251837048144449 -1 -3 0
895 22 2 0.5564 4.728558232665513 6.443045218350765 -16.152515144057507 2 -1 0
1221 131 2 0.5564 -1.130345659327718 2.2132399725304785 -15.512649383390766 -1 -3 0
1703 292 1 -1.1128 -1.5104498391117829 7.222777013813821 -15.768982173177438 1 0 0
893 22 1 -1.1128 4.318509388390063 7.260810664643881 -15.87081511234303 2 -1 0
1704 292 2 0.5564 -1.6499917008039917 6.64973275951509 -15.01507095129771 1 0 0
3669 947 2 0.5564 3.6312940105874727 -0.44798554260408036 -16.246055562701184 -1 1 0
3670 947 2 0.5564 2.2199459368792116 -0.29689571699047623 -15.719591969071601 -1 1 0
894 22 2 0.5564 3.9584640422251134 7.063331962035749 -15.006174656203818 2 -1 0
1705 292 2 0.5564 -0.6089548561170155 7.529998910832 -15.673303662051792 1 0 0
3169 780 2 0.5564 6.778121956281746 0.24431627842042053 -16.251299527927028 4 1 0
1648 273 2 0.5564 6.482525879440279 4.448923561554172 -15.786951987610848 6 -4 0
13 1 3 0 7.36814 0 -19.086524130372066 0 0 0
16 1 3 0 7.36814 2.836 -19.086524130372066 0 0 0
17 1 3 0 9.82419 0 -19.086524130372066 0 0 0
18 1 3 0 8.59617 0.709 -19.086524130372066 0 0 0
19 1 3 0 8.59617 2.127 -19.086524130372066 0 0 0
20 1 3 0 9.82419 2.836 -19.086524130372066 0 0 0
21 1 3 0 12.2802 0 -19.086524130372066 0 0 0
22 1 3 0 11.0522 0.709 -19.086524130372066 0 0 0
23 1 3 0 11.0522 2.127 -19.086524130372066 0 0 0
24 1 3 0 12.2802 2.836 -19.086524130372066 0 0 0
26 1 3 0 13.5083 0.709 -19.086524130372066 0 0 0
27 1 3 0 13.5083 2.127 -19.086524130372066 0 0 0
65 1 3 0 7.36814 4.254 -19.086524130372066 0 0 0
68 1 3 0 7.36814 7.09 -19.086524130372066 0 0 0
69 1 3 0 9.82419 4.254 -19.086524130372066 0 0 0
70 1 3 0 8.59617 4.963 -19.086524130372066 0 0 0
71 1 3 0 8.59617 6.381 -19.086524130372066 0 0 0
72 1 3 0 9.82419 7.09 -19.086524130372066 0 0 0
73 1 3 0 12.2802 4.254 -19.086524130372066 0 0 0
74 1 3 0 11.0522 4.963 -19.086524130372066 0 0 0
75 1 3 0 11.0522 6.381 -19.086524130372066 0 0 0
76 1 3 0 12.2802 7.09 -19.086524130372066 0 0 0
78 1 3 0 13.5083 4.963 -19.086524130372066 0 0 0
79 1 3 0 13.5083 6.381 -19.086524130372066 0 0 0
3734 969 1 -1.1128 10.924648122008012 5.811387127064542 -15.053967797789907 4 0 0
3736 969 2 0.5564 10.890782589738402 5.212194034510414 -15.799657775163093 4 0 0
2546 573 1 -1.1128 11.088474344027288 3.054534026269749 -16.230227418012298 -6 2 0
2548 573 2 0.5564 10.535912414476565 2.341955591021815 -16.55138786291383 -6 2 0
1170 114 2 0.5564 10.544217231941495 0.005958727688516779 -16.060150626525488 -1 4 0
1169 114 1 -1.1128 9.819219695457061 0.6270164159351781 -16.130141818227752 -1 4 0
869 14 1 -1.1128 8.095989637313075 3.3892912204747945 -15.338786880523122 1 2 0
870 14 2 0.5564 8.879548250608773 3.8702149208999383 -15.605209596216277 1 2 0
3893 1022 1 -1.1128 13.404742895064375 1.511203985286954 -15.612071493287706 1 1 0
1171 114 2 0.5564 9.515051501112096 0.7432595771413564 -15.230029259764883 -1 4 0
3894 1022 2 0.5564 12.826843636148215 0.759031791409605 -15.740535433307482 1 1 0
2547 573 2 0.5564 11.953765961690008 2.658824097964786 -16.12573326402286 -6 2 0
3167 780 1 -1.1128 7.021250446993071 -0.6797480402870312 -16.194504333148984 4 1 0
3491 888 1 -1.1128 2.634281443523452 2.4324970917673103 -14.833916725137614 0 0 0
3492 888 2 0.5564 1.7605593033054074 2.091989567071548 -14.641831830511471 0 0 0
1093 88 2 0.5564 1.8095744567294487 4.153955131021001 -14.952480076892348 1 -1 0
1091 88 1 -1.1128 1.3675120226674653 4.957428852746347 -14.678171376379565 1 -1 0
1647 273 2 0.5564 5.306138902197884 4.970654070348432 -14.989576738830953 6 -4 0
3756 976 2 0.5564 3.0806172078395746 -0.2693258371859428 -10.835259058210733 -1 4 0
879 17 2 0.5564 -0.24051335129570373 3.223230995881771 -11.918003639085827 -3 2 0
3493 888 2 0.5564 3.1172039511075407 2.3306305851257445 -14.013767456479446 0 0 0
3924 1032 2 0.5564 1.607487497126443 4.6310425057414 -10.62866552056588 -2 0 0
2549 574 1 -1.1128 0.8322869397811914 7.050245138000508 -9.209200440542633 -2 4 0
1805 326 1 -1.1128 4.021483285111329 2.710064567867987 -12.450536280941378 6 -1 0
1807 326 2 0.5564 4.629363365498404 1.991495779826735 -12.276250495146796 6 -1 0
3689 954 1 -1.1128 1.5940383396440267 0.4427355132146815 -11.942490001413578 -2 0 0
4577 1250 1 -1.1128 4.158455049961608 1.1235932488115836 -7.591176740505801 1 0 0
2551 574 2 0.5564 0.9753163536325327 6.615615905752513 -10.04995906517529 -2 4 0
4579 1250 2 0.5564 4.534005654647826 1.9974875092186664 -7.69844513489412 1 0 0
2738 637 1 -1.1128 -0.6758658006835537 4.898773820586812 -8.131462641203127 2 -3 0
4820 1331 1 -1.1128 2.8337831775950506 3.658829534356209 -9.84734166350931 2 1 0
2740 637 2 0.5564 -0.30239791971725494 5.767885499098781 -8.277746852938986 2 -3 0
4822 1331 2 0.5564 3.0209909642415225 2.969251784193715 -10.484262516204067 2 1 0
1806 326 2 0.5564 4.575136118883476 3.490218860187967 -12.48310032770607 6 -1 0
3728 967 1 -1.1128 6.0841489343904245 0.7951096269965883 -12.672561497511026 5 -1 0
3729 967 2 0.5564 5.845613240174029 -0.09865051620881687 -12.426541237118292 5 -1 0
3730 967 2 0.5564 5.914232617754696 0.8384562998603898 -13.613562132600801 5 -1 0
932 35 1 -1.1128 4.492085901575902 5.353982645262926 -13.23108215283611 3 -1 0
3923 1032 1 -1.1128 1.1131942080281563 5.183311690412004 -11.234397663824085 -2 0 0
933 35 2 0.5564 3.7767497063550697 5.906693699927095 -12.916380423496387 3 -1 0
3925 1032 2 0.5564 1.334557963617057 4.8455353454651044 -12.102232872915476 -2 0 0
3755 976 1 -1.1128 3.5256644585060357 -0.5698100849902309 -10.042873557561089 -1 4 0
3741 971 2 0.5564 2.1568665820845947 3.6399001356780776 -8.053838403236925 1 -1 0
934 35 2 0.5564 5.266341425494242 5.67868551732818 -12.771374754158018 3 -1 0
3757 976 2 0.5564 3.6124266646499645 0.21625720730275005 -9.503612147284029 -1 4 0
4821 1331 2 0.5564 3.522729987028298 4.308408029654086 -9.987458928710009 2 1 0
1457 210 1 -1.1128 4.777253223512627 5.547452099140018 -10.22980802369793 1 0 0
1459 210 2 0.5564 4.425105209454654 6.001967632872009 -9.464536470512954 1 0 0
1458 210 2 0.5564 5.667319663180925 5.303701106298723 -9.975640277145887 1 0 0
2377 516 2 0.5564 6.041515487971289 0.7958512261589972 -8.192735114711917 2 1 0
3742 971 2 0.5564 0.7770844072010781 4.08332342772775 -7.616262893116554 1 -1 0
2527 566 2 0.5564 -0.4028087988134246 5.168900618200653 -14.050017260528737 4 2 0
878 17 1 -1.1128 -0.28402922460194824 2.3378785022498962 -12.27923670907264 -3 2 0
3690 954 2 0.5564 1.0436862683219852 1.190484203854402 -12.175335459945051 -2 0 0
2127 433 2 0.5564 2.182991243874588 7.589349935426298 -14.045893146401623 2 4 0
3681 951 2 0.5564 -1.5758685998934268 -0.11487654887818913 -8.06868180428538 3 2 0
2525 566 1 -1.1128 -1.1512038830748588 5.586405284523372 -13.623599195398075 4 2 0
3691 954 2 0.5564 0.9770611111605881 -0.22603346168699837 -11.645302991547442 -2 0 0
2550 574 2 0.5564 1.709566805636161 7.29008279111314 -8.910718806810983 -2 4 0
880 17 2 0.5564 -0.42454555455191356 2.4679755881550203 -13.217087249462335 -3 2 0
1676 283 1 -1.1128 5.725458385757547 3.3493733606621054 -7.88418769393346 1 2 0
2526 566 2 0.5564 -0.7814557731365371 6.354213341095279 -13.187718454688227 4 2 0
3189 787 2 0.5564 3.9356585185314414 6.652063573058309 -7.680731700818672 1 0 0
2126 433 1 -1.1128 2.5038525610217612 7.414584868957645 -13.161168585314543 2 4 0
2128 433 2 0.5564 1.7511818650606286 7.585009903938126 -12.594887584715922 2 4 0
3188 787 1 -1.1128 3.545666424391494 7.2343564963856855 -8.332709352025729 1 0 0
2739 637 2 0.5564 -0.9138593379175798 4.589611917207992 -9.00553956503535 2 -3 0
1540 237 2 0.5564 -0.6213840967750357 -0.23965454853361007 -10.053718458808346 0 -2 0
3735 969 2 0.5564 11.031845492802423 5.24121632050333 -14.292622362023563 4 0 0
2138 437 1 -1.1128 13.643634568834651 6.475061123937017 -14.617731515705437 -2 -3 0
4584 1252 2 0.5564 9.529010419005655 6.84025877984136 -14.440293143759611 -3 -2 0
871 14 2 0.5564 8.127373211286844 3.3904950268301217 -14.382099330645236 1 2 0
4065 1079 2 0.5564 9.725931540086727 6.663807620209999 -7.9004894082725325 0 -4 0
2009 394 1 -1.1128 7.522590181710005 4.975413015997828 -9.666142736640632 1 -3 0
1838 337 1 -1.1128 7.105526022320933 6.091035751457707 -12.572365663183284 1 -1 0
1945 372 2 0.5564 6.828325251227087 1.519616710043744 -11.197567702425028 3 1 0
4773 1315 2 0.5564 13.943604578838348 4.777018371284667 -7.878105466625633 0 0 0
4088 1087 1 -1.1128 14.029597262265666 1.473748217873827 -12.888939273929692 2 5 0
2010 394 2 0.5564 8.34820048961362 4.656015473769982 -10.0302648937342 1 -3 0
1873 348 2 0.5564 6.174944605799957 7.658839355531494 -10.47598136358804 0 -4 0
1509 227 2 0.5564 10.555727485534057 5.817594801512488 -9.522360223475065 -4 3 0
1510 227 2 0.5564 11.54860471198376 4.7300920647755165 -9.171036854836085 -4 3 0
1944 372 2 0.5564 7.129668698805892 1.746103085267075 -9.731350338145488 3 1 0
1943 372 1 -1.1128 7.338755977279983 2.072965472322432 -10.60638176017925 3 1 0
1186 119 2 0.5564 8.134716620172384 0.42690458912668916 -12.896029900301215 4 -2 0
1840 337 2 0.5564 7.758980659706693 6.431394429788603 -13.183419198787956 1 -1 0
2140 437 2 0.5564 12.738156282704862 6.179117952813376 -14.52414183681916 -2 -3 0
1184 119 1 -1.1128 8.935247703213095 0.2169307285785335 -13.376959728554208 4 -2 0
1414 195 2 0.5564 11.97962980476579 0.16785031181881596 -9.376306460752513 3 -1 0
1964 379 1 -1.1128 11.396932858845174 1.4948491339335497 -12.061890438616409 -3 2 0
2179 450 2 0.5564 13.655744771697155 4.6913900647628335 -11.166172955659555 -2 1 0
1965 379 2 0.5564 11.313959093054848 1.5824039076236545 -11.112318867800752 -3 2 0
1898 357 1 -1.1128 8.295232878193207 3.6572412129811065 -12.631301620476467 2 4 0
1900 357 2 0.5564 7.990152562109828 4.530438216755519 -12.384943985119092 2 4 0
1899 357 2 0.5564 7.736336281806684 3.058979904661458 -12.135364013938695 2 4 0
3714 962 2 0.5564 11.255857732539427 3.2041166247098283 -12.810143439063848 0 0 0
3713 962 1 -1.1128 10.939981120253343 4.107278402071436 -12.782700076338191 0 0 0
4076 1083 1 -1.1128 10.454330366227884 7.2515805010125005 -10.594828665399815 3 -5 0
3715 962 2 0.5564 10.074592414359362 4.046665833817345 -12.378149912841508 0 0 0
2376 516 2 0.5564 7.403289251353234 1.1238906750150763 -7.618402233663554 2 1 0
2375 516 1 -1.1128 6.9783441213143895 0.7058438745997433 -8.367328846308768 2 1 0
4090 1087 2 0.5564 13.783378491809918 1.6207721654495404 -13.802171675838139 2 5 0
1966 379 2 0.5564 12.282885973487494 1.1579243802324257 -12.195322062934162 -3 2 0
2177 450 1 -1.1128 12.788534711229973 4.898189474742141 -10.817729075751622 -2 1 0
2178 450 2 0.5564 12.193604367163587 4.754088517670208 -11.553612969929885 -2 1 0
1412 195 1 -1.1128 11.893004492014143 1.117345602069278 -9.461083015364457 3 -1 0
1413 195 2 0.5564 11.534228330293008 1.4016065544042997 -8.620423934377678 3 -1 0
1508 227 1 -1.1128 10.737984762784482 5.140872468124585 -8.87039220430172 -4 3 0
1185 119 2 0.5564 9.620052553588735 0.7172424916070963 -12.933152725590148 4 -2 0
4006 1059 2 0.5564 13.034487096525597 2.7135292751974167 -8.90810751695551 5 2 0
3787 986 2 0.5564 14.107687129848845 -0.24244125293155636 -12.119845840978929 0 1 0
1839 337 2 0.5564 7.235462213896335 6.6015157766850265 -11.773141635690617 1 -1 0
1947 373 2 0.5564 13.156062354235994 6.53716607556348 -11.092945757601957 -5 -1 0
4583 1252 1 -1.1128 8.702767132558686 7.309801253273961 -14.325898248905542 -3 -2 0
2139 437 2 0.5564 14.119017698917123 5.701187191483716 -14.919996245237746 -2 -3 0
4004 1059 1 -1.1128 13.756433219466873 3.207224721501357 -8.519142801428771 5 2 0
2011 394 2 0.5564 7.211088123933654 4.2589367730187675 -9.113095660814475 1 -3 0
1946 373 1 -1.1128 13.421337159199174 7.379880559584139 -11.4613128280015 -5 -1 0
4077 1083 2 0.5564 11.25731992810609 7.3815147279289235 -11.099364986564042 3 -5 0
1327 166 2 0.5564 5.1350942324626745 -0.6116339360254635 -6.649079657765065 4 2 0
3012 728 2 0.5564 -0.5935441328355919 3.767372408981472 -0.8582455294963027 -1 1 0
4578 1250 2 0.5564 3.563544969251374 1.2078502893088578 -6.84604795031234 1 0 0
3159 777 2 0.5564 -1.4038720175050199 3.384563577847599 -4.276586278685504 -1 1 0
3740 971 1 -1.1128 1.6302074839276626 3.816090251447948 -7.274210667754329 1 -1 0
1904 359 1 -1.1128 -1.7936778423107889 1.043467297997242 -0.19795963437939235 -4 -1 0
4606 1259 2 0.5564 -1.1715932552668815 5.46004249201043 -2.99121821139511 4 -3 0
3581 918 1 -1.1128 4.383215455433891 5.151058553267968 -6.41983111097631 1 2 0
2599 590 2 0.5564 4.937675877936615 -0.6276122226615304 -3.5972048772035716 6 -1 0
3158 777 1 -1.1128 -1.7008690886845543 2.5353173182504 -4.603399384482378 -1 1 0
4604 1259 1 -1.1128 -1.438993902611186 5.472631027348946 -2.0722118126935256 4 -3 0
1326 166 2 0.5564 5.966287655800743 -0.4360921490415756 -5.39600400464194 4 2 0
3011 728 1 -1.1128 -0.03163650687178661 3.047512321224047 -0.5713764851739216 -1 1 0
4295 1156 1 -1.1128 1.8301544120551851 7.797861209275152 -3.168424758004171 -3 0 0
2214 462 2 0.5564 -0.3363076249190371 6.129061253483291 -5.308361939505564 -2 1 0
1041 71 2 0.5564 1.7560667205025342 7.224403149436185 -6.399314944028937 -2 -1 0
2774 649 1 -1.1128 0.6729150529473718 6.556496573796415 -0.9361161022931909 4 0 0
2215 462 2 0.5564 -1.72348940397273 5.645157656107679 -5.673683654888807 -2 1 0
3583 918 2 0.5564 3.7300289845143917 4.870356498814392 -5.778904708930274 1 2 0
3739 970 2 0.5564 0.07878095084560917 1.983138317923267 -3.6236445422062813 -3 -3 0
3737 970 1 -1.1128 0.7871338034249541 2.5280324353242003 -3.280776077741255 -3 -3 0
3582 918 2 0.5564 5.042552549474262 5.6144625280898275 -5.903339288750183 1 2 0
2680 617 2 0.5564 3.2879212052933053 2.9936517070084756 -2.0156339818080826 -5 3 0
3525 899 2 0.5564 2.6318214012881525 1.9170865487616693 -4.7550430517141775 -5 -2 0
3524 899 1 -1.1128 2.3063276231272556 1.5030641831276499 -5.55433758894023 -5 -2 0
2612 595 1 -1.1128 2.4440084603121557 4.355833524517124 -4.644759119730769 -2 3 0
2613 595 2 0.5564 1.7331010276001946 3.9408670748593075 -4.156245412969543 -2 3 0
2614 595 2 0.5564 2.1233372700889186 4.398210077667041 -5.545651177011096 -2 3 0
2678 617 1 -1.1128 3.583307286964296 3.728233609705828 -1.4777040203767278 -5 3 0
3738 970 2 0.5564 0.5765415282457738 2.6400723853613184 -2.3537745995842734 -3 -3 0
2679 617 2 0.5564 3.314130801928055 3.4979954322874653 -0.5884526254600931 -5 3 0
3526 899 2 0.5564 2.1541389072170296 2.2310951113229143 -6.156868334683407 -5 -2 0
2268 480 2 0.5564 5.664659352860051 3.194338554882933 -1.7629198365178078 2 1 0
1561 244 2 0.5564 1.5557946525824975 -0.31917005891330885 -5.479453691704319 1 4 0
1507 226 2 0.5564 2.0112236003781323 0.2543595740910495 -1.3647793327031836 2 0 0
1040 71 1 -1.1128 0.9631636701225404 7.464894147779966 -5.920042951082217 -2 -1 0
1505 226 1 -1.1128 2.7737356843154863 0.5274173046354822 -0.8546347959095121 2 0 0
2776 649 2 0.5564 -0.018422057151882554 6.051662725343214 -1.3644089655455793 4 0 0
4296 1156 2 0.5564 2.1973766003370967 7.757736279172488 -4.051471205449271 -3 0 0
2213 462 1 -1.1128 -1.1139653088542079 5.711034074656805 -4.938582406258151 -2 1 0
2597 590 1 -1.1128 4.19715923884847 -0.7086581905259063 -2.996123714747363 6 -1 0
4708 1293 2 0.5564 5.612526722350183 6.3294674974219935 -3.6522320579246728 -2 1 0
2775 649 2 0.5564 1.3895065447214119 6.568495928498704 -1.5706130257147894 4 0 0
1677 283 2 0.5564 5.087520595302273 3.9391017900183143 -7.482325409608984 1 2 0
3013 728 2 0.5564 -0.6183801421923973 2.2934382514634346 -0.5135709356234787 -1 1 0
2208 460 2 0.5564 6.105658729757084 5.167745338676907 -2.011597246088364 0 0 0
4706 1293 1 -1.1128 5.82438661930233 6.741920462199397 -4.489628085861478 -2 1 0
2207 460 1 -1.1128 5.399679327638209 5.759443152893694 -1.751366010039503 0 0 0
2209 460 2 0.5564 4.65177922569599 5.184291148545813 -1.5898663469955943 0 0 0
1506 226 2 0.5564 3.5164743241389598 0.1104220410897503 -1.2913117005889916 2 0 0
1905 359 2 0.5564 -1.7606368247544866 0.10702272316167188 -0.393450041454907 -4 -1 0
4774 1315 2 0.5564 13.551463403663767 6.118030764668995 -7.295164758484389 0 0 0
4262 1145 1 -1.1128 9.305633691871499 -0.09391857228971992 -1.612460729961047 -5 -1 0
2472 548 2 0.5564 12.599578910841153 0.47208121135400244 -0.6405597201500609 -1 0 0
4851 1341 2 0.5564 12.197860796502349 3.897316604331053 -1.822427240390526 1 0 0
4064 1079 1 -1.1128 9.695688494039473 7.3881113018025575 -7.275427534033406 0 -4 0
3812 995 1 -1.1128 12.38939153423074 7.295962619611585 -6.767553384665932 -3 -2 0
4234 1135 2 0.5564 8.118250696410557 2.902927838391761 -6.202664127276429 -1 -7 0
4066 1079 2 0.5564 9.34668644959606 6.998772704086242 -6.47365085326105 0 -4 0
4852 1341 2 0.5564 12.948964792208843 2.981422000779918 -2.7652303198802466 1 0 0
3475 882 2 0.5564 10.154495915340279 4.28683390127369 -7.362133725016028 0 4 0
1537 236 2 0.5564 8.83619170540376 3.9323742646231192 -1.465132148095004 -1 2 0
2473 548 2 0.5564 13.605096114948154 1.6008350023046205 -0.5584061437760879 -1 0 0
2269 480 2 0.5564 7.151643450761626 3.1869819823583256 -2.047032634444231 2 1 0
3814 995 2 0.5564 11.48147044220993 7.28028026722706 -7.070316668331775 -3 -2 0
4020 1064 2 0.5564 7.342510047153862 0.3409292094250827 -3.593150315038835 2 -1 0
1426 199 2 0.5564 12.970802339291144 0.9760780874380595 -4.405773637855012 -1 0 0
3000 724 2 0.5564 10.576471615900239 2.678198314077978 -2.233718771265266 -3 1 0
4232 1135 1 -1.1128 7.497342277325165 2.1800738260086763 -6.293149036171806 -1 -7 0
4311 1161 2 0.5564 10.326854632695223 6.93856393527144 -1.225009576529211 0 -3 0
2976 716 2 0.5564 10.650077657167934 2.182908524872388 -6.6961167836353335 -1 -3 0
4644 1272 2 0.5564 11.167805204482534 -0.4650192141806967 -2.175657176021864 0 -3 0
4021 1064 2 0.5564 6.466856604014583 1.5675925127667938 -3.450223072604985 2 -1 0
4019 1064 1 -1.1128 6.564772130267647 0.7625300863350414 -3.958675652310648 2 -1 0
4051 1074 2 0.5564 8.79729033072808 5.43307002125212 -5.700348750811847 0 -2 0
4049 1074 1 -1.1128 8.413660989253943 6.042371303549833 -5.069622056948201 0 -2 0
4264 1145 2 0.5564 8.984437324660805 -0.6418284509360195 -0.8963174879461284 -5 -1 0
3245 806 1 -1.1128 11.19832314097968 5.571972699325948 -4.366434941555891 2 3 0
4850 1341 1 -1.1128 12.379207893541185 3.7504479555092005 -2.750746925975037 1 0 0
4312 1161 2 0.5564 8.943985500578112 7.4986627352506385 -0.9683815384471246 0 -3 0
1424 199 1 -1.1128 12.112524416715797 0.632363561453291 -4.653673158633781 -1 0 0
4233 1135 2 0.5564 7.393913040052484 1.8398798913724272 -5.404440152780346 -1 -7 0
3246 806 2 0.5564 11.681914974391358 4.877409206455454 -3.9192729936209907 2 3 0
1535 236 1 -1.1128 8.316517569250635 4.53869202676689 -0.9373522243856885 -1 2 0
4050 1074 2 0.5564 9.114182398289012 6.207080522001746 -4.438451982483955 0 -2 0
1678 283 2 0.5564 6.289790231203597 3.0771877511313557 -7.160528731369286 1 2 0
4263 1145 2 0.5564 9.256246737532368 -0.6561760439857668 -2.385549075843421 -5 -1 0
1536 236 2 0.5564 8.60126609666507 5.407723611595008 -1.220079859819321 -1 2 0
2975 716 1 -1.1128 10.731750278857017 1.2562705386466273 -6.921735165782006 -1 -3 0
3474 882 2 0.5564 10.533486428772488 4.466023068736536 -5.907431089179827 0 4 0
3473 882 1 -1.1128 9.83293397255428 4.140286905658141 -6.472549937978337 0 4 0
4707 1293 2 0.5564 6.755613710413882 6.561039760722659 -4.617440978344439 -2 1 0
2977 716 2 0.5564 11.324168003994838 0.8994523743903061 -6.259953832093912 -1 -3 0
3001 724 2 0.5564 9.411182139472938 1.7331672653887804 -2.0314486575787827 -3 1 0
3247 806 2 0.5564 11.873716082116637 6.094572251353605 -4.79883137811712 2 3 0
2267 480 1 -1.1128 6.299226225781576 3.0946431267049186 -2.472580330607921 2 1 0
2999 724 1 -1.1128 9.625232814928687 2.661073673828228 -2.1284370050038826 -3 1 0
1425 199 2 0.5564 11.993410088652094 -0.13858844185111222 -4.098984687752003 -1 0 0
4310 1161 1 -1.1128 9.477909222532352 7.080407001137421 -1.6438224445463374 0 -3 0
2471 548 1 -1.1128 12.774651514869882 1.3550456460828617 -0.9660680717797742 -1 0 0
3142 771 2 0.5564 9.572872492682459 -0.39242706173881403 -6.9514183131948775 1 0 0
3423 865 2 0.5564 1.101875829566034 2.231626416218445 3.5017595257955514 5 3 0
3424 865 2 0.5564 1.1967376536935028 0.8011243405806852 3.0153799633186544 5 3 0
3422 865 1 -1.1128 0.9120323184671189 1.6746469318575068 2.7467983592896785 5 3 0
1681 284 2 0.5564 4.214562092066672 0.7069025704539922 6.4254488449658576 -2 0 0
1680 284 2 0.5564 4.949953559492944 1.7956471407156185 5.673298414384324 -2 0 0
1679 284 1 -1.1128 5.065033216472531 1.1416349385301034 6.3626876376477055 -2 0 0
2398 523 2 0.5564 2.0459161274551665 0.8394069431186394 6.469304376900098 3 2 0
3161 778 1 -1.1128 -0.30024570151253716 5.272630967842492 3.3102926552193 1 -6 0
3616 929 2 0.5564 1.176242463417623 4.258747570231169 3.7495844980818918 5 0 0
3614 929 1 -1.1128 1.8836016124436576 3.813511888236749 4.21611271168767 5 0 0
3435 869 2 0.5564 4.57257545577789 4.299345032333489 6.8723927587898945 2 -2 0
3357 843 2 0.5564 2.075026792498727 2.2264799773830806 1.5551256625976682 2 2 0
2396 523 1 -1.1128 2.5564761929042144 0.042389307862889546 6.611869205440781 3 2 0
1140 104 2 0.5564 1.9162932978172378 5.636150350926526 0.33542520732934944 -3 0 0
3356 843 1 -1.1128 2.9061111885984032 2.42330032394763 1.1229299464240525 2 2 0
3615 929 2 0.5564 1.534992939740277 3.664720824353068 5.095071791130893 5 0 0
935 36 1 -1.1128 -0.7127659901551501 1.2551462643923637 6.176946152299052 -4 -4 0
1504 225 2 0.5564 3.808695576542772 3.179786485189659 3.960049488474423 -1 -1 0
1502 225 1 -1.1128 4.662168479907716 3.015103895379892 4.360921990928613 -1 -1 0
1141 104 2 0.5564 2.350033430331762 4.481049654736589 1.212641051185907 -3 0 0
2449 540 2 0.5564 3.5788128241542543 -0.6199876347833408 0.97859808956116 1 -2 0
2448 540 2 0.5564 4.721199253928613 -0.007495204566819083 1.760711778864066 1 -2 0
4071 1081 2 0.5564 4.412431719748117 5.842423747326748 5.684678646284783 3 1 0
1262 145 1 -1.1128 2.813502734374078 6.068211054274187 5.253602167282244 0 0 0
936 36 2 0.5564 -0.6262140606065465 2.2066487674019517 6.118754193430882 -4 -4 0
1264 145 2 0.5564 2.538343429648443 5.264939294151827 4.811698133196635 0 0 0
2430 534 2 0.5564 -0.6984241175757981 7.424851009844454 0.6424651633018161 1 2 0
1503 225 2 0.5564 5.223776225106026 3.7138147107338377 4.025307580147475 -1 -1 0
1992 388 2 0.5564 4.5885226857859704 6.023158674214496 0.6335693694560843 1 -3 0
3162 778 2 0.5564 -0.37773131823274425 6.094423926656745 2.8256429198239092 1 -6 0
4566 1246 2 0.5564 5.430472943482728 1.7247293957836103 2.934472463858353 -2 -4 0
1752 308 2 0.5564 5.900870155168594 5.571568172090352 2.3917096844443284 4 -6 0
1993 388 2 0.5564 5.919643072499395 6.699947042252439 0.3846266540976832 1 -3 0
4070 1081 1 -1.1128 5.305808309993776 5.748186300286184 6.0151787749011385 3 1 0
3163 778 2 0.5564 -1.0243771712265186 4.735361399565007 2.9890281117951827 1 -6 0
2838 670 2 0.5564 2.438895115260607 3.3972513125227626 7.49926650565167 4 -1 0
4288 1153 2 0.5564 -0.8056163616102852 1.1981859397607768 2.7100377365267874 3 0 0
2837 670 1 -1.1128 1.5838862074687867 3.2230119823651284 7.105777210151691 4 -1 0
4286 1153 1 -1.1128 -1.7406148738988858 1.0488355039027937 2.569662945556091 3 0 0
1991 388 1 -1.1128 5.267204119787289 6.540853834372643 1.0667156595142138 1 -3 0
3358 843 2 0.5564 2.957767136873956 1.7935117009573744 0.40395086225701626 2 2 0
1139 104 1 -1.1128 2.6128999733333784 5.356820959411532 0.929518920589248 -3 0 0
2397 523 2 0.5564 2.2289591599295138 -0.5729684982713824 5.955896839384263 3 2 0
4812 1328 2 0.5564 -1.7561699635060868 4.448377089805209 5.013674797215298 3 -1 0
937 36 2 0.5564 -1.5968194460352056 1.0746000809422327 5.857437243911883 -4 -4 0
4072 1081 2 0.5564 5.805121621712596 6.4210525903042885 5.552394403849961 3 1 0
2429 534 1 -1.1128 -1.185391563024238 7.5689449923651475 1.4538415556523876 1 2 0
3825 999 2 0.5564 2.843483004769234 7.590990483627149 0.6192478199666978 1 -1 0
1263 145 2 0.5564 3.2574672815816266 6.575817234729123 4.574285795355758 0 0 0
3127 766 2 0.5564 1.8071874187718504 7.138816735333532 6.795515415899477 3 6 0
4287 1153 2 0.5564 -1.832375822826085 0.9782765094133115 1.619487251963749 3 0 0
4819 1330 2 0.5564 -0.24203528503480434 7.779845312788812 6.758185943700952 -1 4 0
3537 903 2 0.5564 10.135831831099539 5.657768979343052 6.763676064131989 -2 -2 0
2514 562 2 0.5564 13.673524557472943 1.2409705294977245 6.468094080096162 -2 0 0
3753 975 2 0.5564 9.224034381682914 4.718961245015197 0.4483245972146818 0 2 0
1962 378 2 0.5564 11.284425387163335 -0.07241567492798623 7.4004732627710395 3 1 0
3752 975 1 -1.1128 9.769424364677311 4.816884630534379 1.2288330598354373 0 2 0
1069 80 2 0.5564 10.423094847912626 0.15036569087481233 2.330321940622734 1 1 0
3259 810 2 0.5564 12.789484229410977 7.754562152397036 0.30941583262902267 -2 0 0
1753 308 2 0.5564 6.877051365619691 5.537594879594761 3.54834780595218 4 -6 0
3600 924 2 0.5564 12.278873784600837 3.0992351724380582 2.131357952496919 2 -2 0
4816 1329 2 0.5564 11.246972336452943 4.1389185318506865 0.5888554509483195 1 2 0
2844 672 2 0.5564 12.422296273748326 4.680959004188307 3.959363401075944 -1 2 0
1143 105 2 0.5564 12.1741654326634 -0.1473017445715211 5.376892655051311 7 3 0
3754 975 2 0.5564 9.493989776108753 5.650106631682356 1.611074955544893 0 2 0
4768 1313 2 0.5564 10.88497838350585 2.834119903616501 4.660394376329053 -1 1 0
4766 1313 1 -1.1128 10.441663269506085 2.06526508390996 4.301833021128195 -1 1 0
4740 1304 2 0.5564 8.811537106337466 3.8127655623968497 2.228794031880159 -2 -1 0
4739 1304 1 -1.1128 8.552713677530264 3.3340328312302097 3.016234378923992 -2 -1 0
4741 1304 2 0.5564 7.625145793900963 3.541580202753634 3.129256943652358 -2 -1 0
3379 850 2 0.5564 7.433051931782018 1.7096108528612535 6.326533269825763 3 -1 0
1144 105 2 0.5564 10.70238363294763 -0.01611182960907143 5.047433523286139 7 3 0
1142 105 1 -1.1128 11.34464318652551 -0.6234263130596173 5.4147263494342885 7 3 0
3646 939 2 0.5564 12.88605487843904 3.725872755086063 5.878975302437555 -5 3 0
3645 939 2 0.5564 11.58822273791648 4.396533547937446 6.2761431687980505 -5 3 0
3644 939 1 -1.1128 11.972889715026646 3.82659099728108 5.610236291711574 -5 3 0
3377 850 1 -1.1128 8.10510443438977 2.3605424565791178 6.124378606278509 3 -1 0
3378 850 2 0.5564 8.743773828043246 1.8881929184654935 5.59031837562395 3 -1 0
2843 672 1 -1.1128 12.381126772332903 5.266465757553997 3.203241635948537 -1 2 0
4767 1313 2 0.5564 9.689403025956723 2.4208911204701957 3.828686585821437 -1 1 0
4488 1220 2 0.5564 11.241760616353282 7.179917637692507 6.573038315377397 2 -1 0
2845 672 2 0.5564 11.86077411587046 6.0112545780067 3.504497899879561 -1 2 0
4565 1246 1 -1.1128 6.171464627087274 1.1736978190031608 2.682422049810797 -2 -4 0
4567 1246 2 0.5564 6.607360238204119 1.6623388852251475 1.9842408423424485 -2 -4 0
1751 308 1 -1.1128 6.22966097804077 5.003312214698616 3.088282969957756 4 -6 0
3601 924 2 0.5564 11.425575678853773 2.145719876704296 2.9404232171766242 2 -2 0
3599 924 1 -1.1128 12.212579776896332 2.1819640310922654 2.3967836243194167 2 -2 0
2513 562 1 -1.1128 13.58326320191544 0.7110786066272313 5.676071521989102 -2 0 0
909 27 2 0.5564 8.345483330716608 -0.26871229979233635 3.646918362641933 0 -3 0
3687 953 2 0.5564 7.797195627770714 6.82228375002284 5.355907184282755 1 0 0
910 27 2 0.5564 6.92606776442063 0.18154951258793448 3.9197171304597256 0 -3 0
4149 1107 2 0.5564 9.9647817810705 7.592836438164299 2.920597256213054 3 1 0
3536 903 1 -1.1128 10.87493542005749 5.747189156488234 7.365309216238561 -2 -2 0