LAMMPS data file via write_data, version 2 Aug 2023, timestep = 7500000, units = real

4432 atoms
4 atom types
2400 bonds
1 bond types
1200 angles
1 angle types
0 impropers
1 improper types

-1.8420299999999998 30.08661 xlo xhi
-0.709 33.323 ylo yhi
-150 150 zlo zhi

Masses

1 15.9994
2 1.00794
3 12.0107
4 12.0107

Pair Coeffs # lj/cut/tip4p/long

1 0.1852 3.1589
2 0 0
3 0.0859 3.3997
4 0.0859 3.3997

Bond Coeffs # harmonic

1 5000 0.9572

Angle Coeffs # harmonic

1 500 104.52

Atoms # full

1 1 3 0 0 0 -16.168203030381882 0 0 0
2 1 3 0 -1.22802 0.709 -16.168203030381882 0 0 0
3 1 3 0 -1.22802 2.127 -16.168203030381882 0 0 0
4 1 3 0 0 2.836 -16.168203030381882 0 0 0
5 1 3 0 2.45605 0 -16.168203030381882 0 0 0
6 1 3 0 1.22802 0.709 -16.168203030381882 0 0 0
7 1 3 0 1.22802 2.127 -16.168203030381882 0 0 0
8 1 3 0 2.45605 2.836 -16.168203030381882 0 0 0
9 1 3 0 4.9121 0 -16.168203030381882 0 0 0
10 1 3 0 3.68407 0.709 -16.168203030381882 0 0 0
11 1 3 0 3.68407 2.127 -16.168203030381882 0 0 0
12 1 3 0 4.9121 2.836 -16.168203030381882 0 0 0
14 1 3 0 6.14012 0.709 -16.168203030381882 0 0 0
15 1 3 0 6.14012 2.127 -16.168203030381882 0 0 0
53 1 3 0 0 4.254 -16.168203030381882 0 0 0
54 1 3 0 -1.22802 4.963 -16.168203030381882 0 0 0
55 1 3 0 -1.22802 6.381 -16.168203030381882 0 0 0
56 1 3 0 0 7.09 -16.168203030381882 0 0 0
57 1 3 0 2.45605 4.254 -16.168203030381882 0 0 0
58 1 3 0 1.22802 4.963 -16.168203030381882 0 0 0
59 1 3 0 1.22802 6.381 -16.168203030381882 0 0 0
60 1 3 0 2.45605 7.09 -16.168203030381882 0 0 0
61 1 3 0 4.9121 4.254 -16.168203030381882 0 0 0
62 1 3 0 3.68407 4.963 -16.168203030381882 0 0 0
63 1 3 0 3.68407 6.381 -16.168203030381882 0 0 0
64 1 3 0 4.9121 7.09 -16.168203030381882 0 0 0
66 1 3 0 6.14012 4.963 -16.168203030381882 0 0 0
67 1 3 0 6.14012 6.381 -16.168203030381882 0 0 0
13 1 3 0 7.36814 0 -16.168203030381882 0 0 0
16 1 3 0 7.36814 2.836 -16.168203030381882 0 0 0
17 1 3 0 9.82419 0 -16.168203030381882 0 0 0
18 1 3 0 8.59617 0.709 -16.168203030381882 0 0 0
19 1 3 0 8.59617 2.127 -16.168203030381882 0 0 0
20 1 3 0 9.82419 2.836 -16.168203030381882 0 0 0
21 1 3 0 12.2802 0 -16.168203030381882 0 0 0
22 1 3 0 11.0522 0.709 -16.168203030381882 0 0 0
23 1 3 0 11.0522 2.127 -16.168203030381882 0 0 0
24 1 3 0 12.2802 2.836 -16.168203030381882 0 0 0
26 1 3 0 13.5083 0.709 -16.168203030381882 0 0 0
27 1 3 0 13.5083 2.127 -16.168203030381882 0 0 0
65 1 3 0 7.36814 4.254 -16.168203030381882 0 0 0
68 1 3 0 7.36814 7.09 -16.168203030381882 0 0 0
69 1 3 0 9.82419 4.254 -16.168203030381882 0 0 0
70 1 3 0 8.59617 4.963 -16.168203030381882 0 0 0
71 1 3 0 8.59617 6.381 -16.168203030381882 0 0 0
72 1 3 0 9.82419 7.09 -16.168203030381882 0 0 0
73 1 3 0 12.2802 4.254 -16.168203030381882 0 0 0
74 1 3 0 11.0522 4.963 -16.168203030381882 0 0 0
75 1 3 0 11.0522 6.381 -16.168203030381882 0 0 0
76 1 3 0 12.2802 7.09 -16.168203030381882 0 0 0
78 1 3 0 13.5083 4.963 -16.168203030381882 0 0 0
79 1 3 0 13.5083 6.381 -16.168203030381882 0 0 0
3199 790 2 0.5564 -0.06670752245175052 4.193768433808623 -6.809547249396823 -5 -5 0
3197 790 1 -1.1128 -0.88776285379478 4.589007942387345 -6.516483140228373 -5 -5 0
3775 982 2 0.5564 0.6998359862469562 4.302538501498732 -12.783209195291075 0 -3 0
3198 790 2 0.5564 -0.6173983227329345 5.338169156033649 -5.985542399134596 -5 -5 0
3037 736 2 0.5564 4.414497381759432 4.2261826654543855 -11.618477477656418 6 2 0
2695 622 2 0.5564 12.902352766490592 4.292125260152333 -2.6111485139327786 3 3 0
3036 736 2 0.5564 3.745262851724526 4.994809399108838 -12.737954937913136 6 2 0
3035 736 1 -1.1128 4.034492839410537 4.116644340533088 -12.490158994498373 6 2 0
3774 982 2 0.5564 2.0999545293633792 3.754000766829334 -12.608100079980256 0 -3 0
3960 1044 2 0.5564 7.532920794883981 5.55557041452355 -0.32309494555054175 -3 0 0
3773 982 1 -1.1128 1.188649532461542 3.59566433104181 -12.36175899783903 0 -3 0
2976 716 2 0.5564 -0.11761147953803588 0.5038326581462955 -10.156893068777203 2 -1 0
4296 1156 2 0.5564 4.149782540997981 4.881207929960177 -9.608241560606489 -1 2 0
3976 1049 2 0.5564 -1.0827003275231455 4.5698416397384705 -9.716136486243922 -2 5 0
3974 1049 1 -1.1128 -0.24091198055276672 4.931356046622138 -9.993505691757 -2 5 0
4295 1156 1 -1.1128 4.935496243736486 4.582055737037459 -10.065840321394232 -1 2 0
4216 1129 2 0.5564 1.7521124214887875 -0.014148097493057211 -2.909517046962104 2 1 0
3088 753 2 0.5564 0.3871814400658297 2.889817763790032 -8.571098569806104 0 2 0
2383 518 2 0.5564 -1.7428878009224202 6.6661064625707365 -1.5621954274942904 -3 0 0
3086 753 1 -1.1128 0.9842525398264621 2.9993193564070846 -7.830999072615034 0 2 0
1121 98 1 -1.1128 3.116756321312649 6.674244055165551 -12.587419490935838 -2 1 0
2527 566 2 0.5564 -1.5418077402208905 1.453093822873025 -10.995654061561645 4 1 0
2991 721 2 0.5564 4.712390230235393 6.040414323150705 -6.367508103759881 0 -1 0
2990 721 1 -1.1128 5.619924761770487 6.331682965300587 -6.2793033090701496 0 -1 0
3622 931 2 0.5564 14.091259993789777 6.293642363723079 -3.121926459238613 1 -3 0
3350 841 1 -1.1128 -1.3264251167270547 3.627689194613191 -1.8209791278788847 7 1 0
2311 494 2 0.5564 -0.4987685824532498 2.7914384593786083 -12.513844329133352 -1 4 0
3258 810 2 0.5564 7.134735651581036 7.347542248800522 -8.781826516488495 4 1 0
3103 758 2 0.5564 10.320000907780184 0.8706372655117116 -0.5732513181239216 -1 1 0
1581 251 2 0.5564 7.7349757627596265 3.1528405032577584 -6.292170047629146 2 1 0
2212 461 2 0.5564 -1.8027837309707613 5.7210319684305055 -12.566331048021611 1 2 0
2309 494 1 -1.1128 -1.3010457432605163 2.2869621038672485 -12.648333893156297 -1 4 0
2210 461 1 -1.1128 -0.8930667718355838 5.4388151302489565 -12.66120225955476 1 2 0
1571 248 1 -1.1128 9.531164354829302 -0.4739710667845 -11.282312937854693 -3 1 0
4297 1156 2 0.5564 5.631909038926431 5.156483076778881 -9.747599793327439 -1 2 0
3087 753 2 0.5564 1.6583850128624615 3.59772483363809 -8.153004888951786 0 2 0
2322 498 2 0.5564 1.9756271414058295 0.005398454678345065 -6.2140559601191345 0 2 0
2211 461 2 0.5564 -0.43591033734989254 6.210692107360927 -12.995027732042754 1 2 0
2391 521 2 0.5564 2.823306367592887 2.3997138995542326 -10.979573230742382 3 -1 0
1448 207 1 -1.1128 12.061360708366049 7.414269553480272 -11.651151307439283 -4 1 0
3975 1049 2 0.5564 -0.22602135604019474 4.804286885113752 -10.942116832486228 -2 5 0
3570 914 2 0.5564 11.218689514011158 6.6573534707773305 -8.063809687216004 1 3 0
888 20 2 0.5564 4.073598906407818 -0.508276408970014 -9.139783794032402 5 0 0
2283 485 2 0.5564 6.199986304977544 -0.4704626821333285 -10.546646265369933 -2 -2 0
3046 739 2 0.5564 1.8739214082307578 5.067084881824833 -9.510785292898158 3 2 0
3044 739 1 -1.1128 2.468088122239297 4.949278941770632 -8.769624506094413 3 2 0
2903 692 1 -1.1128 6.698064749959404 0.300405723307245 -0.17424642163760296 -1 3 0
887 20 1 -1.1128 4.0637577655432375 0.3595703068027868 -8.73609704330265 5 0 0
2644 605 2 0.5564 4.111862910421776 0.5234276822061491 -3.4224034501874154 4 -1 0
889 20 2 0.5564 3.6360011238760834 0.9204113558803383 -9.383178130355374 5 0 0
1573 248 2 0.5564 9.770369707438562 0.14707692066324518 -11.97028956421452 -3 1 0
2392 521 2 0.5564 3.466871836085913 1.1632681115442276 -11.57025776537784 3 -1 0
2390 521 1 -1.1128 2.9496205852098694 1.4638847646329045 -10.823058344063996 3 -1 0
931 34 2 0.5564 8.790289197331507 7.649908389851786 -11.608894230682008 6 -1 0
1999 390 2 0.5564 12.628851620280923 3.364924297693497 -13.044626468016473 6 -2 0
4067 1080 1 -1.1128 10.7201605118327 5.878332546799998 -0.6957644812687459 -3 4 0
2382 518 2 0.5564 -1.458419728262863 5.477346340014875 -2.455404916842898 -3 0 0
1123 98 2 0.5564 2.375912748995226 7.025668027370554 -13.081266541791026 -2 1 0
1998 390 2 0.5564 11.463598763193843 4.297414845555669 -13.298674377801229 6 -2 0
3696 956 2 0.5564 11.286508502106829 1.5026126871131535 -12.747772620801452 1 4 0
2094 422 2 0.5564 -0.4666614450086946 6.887105868599634 -10.009683348986405 0 3 0
913 28 2 0.5564 10.336750569582737 1.792799460061604 -8.125388400080048 0 -2 0
4341 1171 2 0.5564 11.158557299659364 3.068139566325103 -9.37365123693148 2 -2 0
3783 985 2 0.5564 6.668754651777862 3.1371315170445637 -10.632011813094978 0 0 0
3784 985 2 0.5564 7.354026207605509 1.7923253578835392 -10.749459696070819 0 0 0
3782 985 1 -1.1128 7.511967992587683 2.732463721943108 -10.83564728275261 0 0 0
4257 1143 2 0.5564 12.990696288522885 1.1783940705113933 -10.408687707712101 0 6 0
911 28 1 -1.1128 9.863939432742788 2.1493317428756624 -8.877429094714872 0 -2 0
912 28 2 0.5564 9.683235480350428 1.3887913928245745 -9.429837323762412 0 -2 0
3910 1027 2 0.5564 9.45012868505326 5.184071104402034 -11.673449219309276 0 -5 0
2284 485 2 0.5564 6.75584448766936 0.20856318131852547 -9.313020116869316 -2 -2 0
1602 258 2 0.5564 6.780334995934359 2.211081631767449 -1.279065442269397 2 -1 0
2282 485 1 -1.1128 6.940543297351228 0.052263563565178806 -10.239132894667474 -2 -2 0
4423 1198 2 0.5564 -1.6819594833742038 2.9756636071168345 -3.6709302707776015 3 0 0
962 45 1 -1.1128 4.687511297684721 1.197045692366726 -13.114166235044559 -1 -1 0
4340 1171 1 -1.1128 11.624666877028622 3.832646079100581 -9.712029909787056 2 -2 0
3909 1027 2 0.5564 9.045474729210039 3.7779893264236537 -11.284753769441373 0 -5 0
4258 1143 2 0.5564 13.486061575262058 0.3787465551759939 -9.222486261362906 0 6 0
3908 1027 1 -1.1128 9.77338386790766 4.2835103173198394 -11.646456176546568 0 -5 0
3697 956 2 0.5564 12.442188702824666 0.5250915000854971 -12.7750721985845 1 4 0
1806 326 2 0.5564 9.270562874424943 5.223869393666114 -7.65162014845726 0 -4 0
3695 956 1 -1.1128 12.238148620948305 1.4528739975751501 -12.657552580984794 1 4 0
4342 1171 2 0.5564 11.155035301080407 4.064874789324772 -10.513121009413023 2 -2 0
1805 326 1 -1.1128 8.498361146775519 4.662409694484851 -7.7202009216436265 0 -4 0
1807 326 2 0.5564 8.817725952065706 3.865811114162398 -8.144076336608777 0 -4 0
4421 1198 1 -1.1128 -1.717206273131928 2.5744061021516713 -4.539252033940826 3 0 0
4256 1143 1 -1.1128 13.237463000793417 0.29258917905957954 -10.142818261126227 0 6 0
4422 1198 2 0.5564 -1.3447345400121415 3.234441457350489 -5.123930036901615 3 0 0
1997 390 1 -1.1128 12.399162484486512 4.292716769703941 -13.09636220399992 6 -2 0
1582 251 2 0.5564 7.070458624853568 1.7942948198161333 -6.360465585812595 2 1 0
3259 810 2 0.5564 7.513694602974407 5.882048819429867 -8.757351164924355 4 1 0
3257 810 1 -1.1128 6.9335600216093285 6.5067076254965555 -9.192626970840509 4 1 0
2323 498 2 0.5564 3.2764914767358873 0.211858337370813 -6.960397806423346 0 2 0
2964 712 2 0.5564 13.843220054326416 3.569500821358919 -5.713670172616991 -2 4 0
2578 583 2 0.5564 9.202510587931686 2.4356980916397477 -12.696140833336294 -2 1 0
4022 1065 1 -1.1128 13.659698068671128 3.184172441041674 -3.762042223236684 -3 4 0
2474 549 1 -1.1128 0.08051509845182948 6.49648279620081 -4.703154999067151 1 -2 0
4214 1129 1 -1.1128 0.966323670479957 0.05101505451793282 -2.3668184577820606 2 1 0
3351 841 2 0.5564 -1.695901517794556 3.649437372989469 -0.9382301353609253 7 1 0
3352 841 2 0.5564 -0.3808974193661219 3.56899779485482 -1.684009541851436 7 1 0
1696 289 2 0.5564 -0.2725530980793871 0.9630760405081656 -5.598857155165154 1 -3 0
4215 1129 2 0.5564 1.2927604718705803 0.2916331043600506 -1.499769488843783 2 1 0
1180 117 2 0.5564 5.61311121343952 2.423334871683557 -2.7766358676303198 1 -4 0
1094 89 1 -1.1128 6.592801262135358 5.063592336976201 -4.189624728946039 1 -2 0
2577 583 2 0.5564 8.731395046971715 1.1147118629255723 -13.266175937431745 -2 1 0
4192 1121 2 0.5564 -1.0937586593340716 -0.08310522095312294 -7.802915812220687 -2 -3 0
3667 946 2 0.5564 10.668535856745264 1.7241606534128717 -6.216924350829675 0 -1 0
929 34 1 -1.1128 8.838836287751311 6.734426895070191 -11.333632282451367 6 -1 0
964 45 2 0.5564 4.89132952811288 2.125811018565835 -13.224092823554345 -1 -1 0
1329 167 2 0.5564 10.966112482258358 4.903897927913936 -5.681864406529817 3 -1 0
2475 549 2 0.5564 -0.31649855102111424 6.507865863619273 -3.83224513710951 1 -2 0
2476 549 2 0.5564 0.2382591515710536 7.4183139741207285 -4.907058410125083 1 -2 0
1695 289 2 0.5564 0.5356204939736207 1.4261760617795343 -6.792293536567048 1 -3 0
4068 1080 2 0.5564 10.70248382518657 6.828860625860492 -0.5843614274809145 -3 4 0
2977 716 2 0.5564 1.3445128272815423 0.6975445226102586 -10.498308940680149 2 -1 0
2975 716 1 -1.1128 0.6868139406231156 0.019625892936140657 -10.343109550121767 2 -1 0
2270 481 1 -1.1128 9.937987143157251 7.3647486437726615 -4.418888174506631 -2 -2 0
1694 289 1 -1.1128 0.2480567060107452 0.6371338277350531 -6.3329959427876545 1 -3 0
838 3 2 0.5564 2.7776080877071427 5.900402067262519 -5.1344950476867455 -2 1 0
836 3 1 -1.1128 3.057333102469435 5.402522127288686 -5.902675260512058 -2 1 0
837 3 2 0.5564 3.0270073825165156 4.488422145202711 -5.6203006312632615 -2 1 0
2065 412 2 0.5564 1.597409697232925 2.8683341953663715 -0.9582859300350179 -4 4 0
4076 1083 1 -1.1128 1.9135170637065309 1.1794692114149024 -0.03490990853415955 5 1 0
1074 82 2 0.5564 7.945215706852015 5.3502999231877855 -2.5043506735330414 0 -2 0
3102 758 2 0.5564 9.728401891530595 0.01685600735341555 -1.6745975589241906 -1 1 0
2609 594 1 -1.1128 3.506949704596676 2.621120426088434 -5.386831559987147 -2 5 0
2611 594 2 0.5564 2.901273493130574 1.897021556720467 -5.545156364595102 -2 5 0
2063 412 1 -1.1128 1.3672475287180277 3.725487310121276 -1.3168240898270362 -4 4 0
1449 207 2 0.5564 12.772925107987696 6.794601146195335 -11.812141306894029 -4 1 0
2610 594 2 0.5564 4.0781392686431355 2.3072992361224354 -4.685766945404729 -2 5 0
1536 236 2 0.5564 12.270958644663452 0.020108556457273705 -3.624396638731042 8 7 0
4268 1147 1 -1.1128 3.8933889647648443 5.102542489660575 -2.76284842943407 -1 2 0
4269 1147 2 0.5564 3.7577054239369674 5.900093750524914 -2.251249399839171 -1 2 0
4270 1147 2 0.5564 3.24969064478313 4.48374711539803 -2.4179188449343347 -1 2 0
2064 412 2 0.5564 1.7653144714108833 4.352817069075261 -0.7133061488916286 -4 4 0
2693 622 1 -1.1128 13.05510532242926 4.911714805153156 -1.8976990588017542 3 3 0
2381 518 1 -1.1128 -1.5114623413052735 6.4330589899189725 -2.461287231964182 -3 0 0
3045 739 2 0.5564 2.006249629482398 5.339292819753267 -8.027449790856146 3 2 0
930 34 2 0.5564 8.179483426805406 6.6558319977138645 -10.64420477357785 6 -1 0
1096 89 2 0.5564 6.738206147496291 4.3859898401051325 -4.849885236428269 1 -2 0
1328 167 1 -1.1128 11.112359642408515 4.757440531172757 -4.747309640122049 3 -1 0
2984 719 1 -1.1128 4.396380900653854 7.757701431873598 -1.9558946072715617 6 0 0
1178 117 1 -1.1128 5.313972188523197 1.9085730394941767 -3.5261476208792306 1 -4 0
3312 828 2 0.5564 7.633944727334756 -0.5842429764194889 -1.8890973653349918 1 -1 0
2642 605 1 -1.1128 3.5402744778188713 -0.2194941940546872 -3.6162564604149234 4 -1 0
1368 180 2 0.5564 4.583866459925453 7.291568878515999 -0.3091595505185815 6 4 0
2980 717 2 0.5564 6.721825447988386 0.007090729528376502 -6.7309348749078275 -3 1 0
2986 719 2 0.5564 5.163840560546362 7.677427809766416 -2.5222794322932147 6 0 0
1122 98 2 0.5564 3.0727170333670015 7.117987299172583 -11.740432778599198 -2 1 0
1330 167 2 0.5564 10.818562767823604 3.859043353258562 -4.596323017988117 3 -1 0
2992 721 2 0.5564 5.9086666458925405 5.967302262493598 -5.4425879662461085 0 -1 0
1095 89 2 0.5564 5.752740824601404 4.8347978799787885 -3.7919047253411358 1 -2 0
963 45 2 0.5564 5.521958253763616 0.749868395571727 -13.255446469311126 -1 -1 0
4069 1080 2 0.5564 9.98960105017363 5.692199436186035 -1.2855687889874505 -3 4 0
1492 221 2 0.5564 9.9907404766977 1.4174604019608408 -3.7080897787256824 -4 0 0
2503 558 2 0.5564 12.773264833975773 0.17647820586174523 -7.046047794171578 2 2 0
1580 251 1 -1.1128 7.318787194489842 2.4854784259208214 -5.746600315149905 2 1 0
2501 558 1 -1.1128 13.549414217377377 -0.04175820471279943 -7.561988575555445 2 2 0
2694 622 2 0.5564 12.201916245574322 5.318335492379798 -1.7461726829039965 3 3 0
3665 946 1 -1.1128 11.108342828769885 1.1309441656076706 -6.825933655628521 0 -1 0
2979 717 2 0.5564 5.672687064694658 0.561320661917293 -7.671165889853321 -3 1 0
1537 236 2 0.5564 11.844353671710879 0.7640069417905312 -2.376793956850231 8 7 0
3571 914 2 0.5564 11.466389012506454 5.164447380675201 -8.105851334272929 1 3 0
3101 758 1 -1.1128 10.555277840368387 0.22507203127609116 -1.2396756641238835 -1 1 0
1535 236 1 -1.1128 12.141377463773571 0.9022563603097108 -3.2761810011302157 8 7 0
1601 258 1 -1.1128 6.807575995616091 3.0760601345339924 -1.688089751174618 2 -1 0
1179 117 2 0.5564 5.877601187087902 2.186222149830122 -4.248273156256663 1 -4 0
2978 717 1 -1.1128 6.589672080584751 0.6624768916793686 -7.415944291303092 -3 1 0
1603 258 2 0.5564 6.693152995990185 3.6887593921688326 -0.9616340310186695 2 -1 0
1073 82 1 -1.1128 8.472876191069785 5.903896686402889 -1.928728748627034 0 -2 0
3569 914 1 -1.1128 11.03396828357493 5.845799068740997 -7.5910673094057906 1 3 0
2321 498 1 -1.1128 2.911553444605365 -0.19093553164136864 -6.172482442114033 0 2 0
1490 221 1 -1.1128 9.675054121733572 2.1951196936949917 -4.168324002391561 -4 0 0
2576 583 1 -1.1128 9.523169459678785 1.6185203894559372 -13.077755740567707 -2 1 0
1075 82 2 0.5564 8.296079434202074 6.796433001694037 -2.225980600957931 0 -2 0
3666 946 2 0.5564 10.496338310201995 0.40327344053549974 -6.936295817717304 0 -1 0
1491 221 2 0.5564 8.778458461788507 1.9762916296913071 -4.422212860711904 -4 0 0
1572 248 2 0.5564 8.63334134219239 -0.2387159669773936 -11.048213939197698 -3 1 0
2643 605 2 0.5564 3.392288028591677 -0.1684465033162476 -4.560567003485087 4 -1 0
2023 398 2 0.5564 13.486659106355592 3.84436819608243 -9.875775392806162 2 2 0
1450 207 2 0.5564 11.263208091941166 6.9056325411272885 -11.794235778059521 -4 1 0
4024 1065 2 0.5564 13.235508128578513 2.357637312552237 -3.5315233478011443 -3 4 0
3621 931 2 0.5564 13.791059869034042 6.110077000925454 -4.594365784762386 1 -3 0
2271 481 2 0.5564 10.277174900084875 6.4785316406108695 -4.544603784152454 -2 -2 0
2508 560 2 0.5564 12.082182748972706 7.6866274149088545 -9.877185608537006 4 0 0
3216 796 2 0.5564 13.641075394311157 3.6165898679639596 -0.176172704085333 -3 -2 0
2525 566 1 -1.1128 -1.642230881239548 1.2095903155941434 -10.075405299276621 4 1 0
2272 481 2 0.5564 9.094752250948847 7.239470167271944 -3.983581370202832 -2 -2 0
2902 691 2 0.5564 0.21004920774085106 7.723340277372058 -12.117332303921545 -2 2 0
2900 691 1 -1.1128 0.5596159665509355 7.680272371771836 -13.007379063102803 -2 2 0
2093 422 1 -1.1128 -0.2263265714108389 7.797334852524439 -10.182757492910048 0 3 0
2502 558 2 0.5564 14.114072245490208 -0.5205665118794158 -6.95525152168917 2 2 0
2541 571 2 0.5564 -0.32600443427269465 -0.6667286992518413 -3.9792594640945427 -1 2 0
2081 418 1 -1.1128 12.514955529962936 3.239896181383732 13.338216764905487 1 1 0
4260 1144 2 0.5564 -0.3880545823488995 4.532990412908682 8.19654493086293 5 -1 0
1054 75 2 0.5564 1.2520809001829063 5.995282426811946 6.30777757143949 1 -2 0
1052 75 1 -1.1128 1.739589238353994 6.105140456806724 5.491383778336831 1 -2 0
3698 957 1 -1.1128 -0.14746518650699508 0.26285667172169014 1.6108008983519773 -2 -2 0
4008 1060 2 0.5564 10.656714539371874 5.469592927781491 0.8493279241734482 -1 -5 0
3916 1029 2 0.5564 2.6379146626883023 2.7888266484680266 5.5973576116481585 -2 4 0
2339 504 1 -1.1128 4.030521194199566 4.81625668057871 3.3658858051854064 0 2 0
4210 1127 2 0.5564 12.068462207264544 -0.12364708855682754 5.055170838034626 4 -2 0
2340 504 2 0.5564 4.664468306989747 4.325703009816853 2.842720495830583 0 2 0
3915 1029 2 0.5564 3.5247132526830116 3.7303352837387096 4.810562521997856 -2 4 0
2082 418 2 0.5564 12.957236471460618 4.033913137588048 13.037951651167543 1 1 0
1980 384 2 0.5564 -0.03374014838262267 3.7105278532550927 2.7943067125654397 3 1 0
3959 1044 1 -1.1128 6.8981846577488435 5.270215831335378 0.33410430126125007 -3 0 0
1979 384 1 -1.1128 0.0635095416875789 3.4755874156335085 1.8714970008688885 3 1 0
3094 755 2 0.5564 4.328878731367277 6.4554746201960205 4.329834649538289 -3 -2 0
3934 1035 2 0.5564 0.6440890467814998 4.822953896905639 4.622764301107221 2 2 0
1351 174 2 0.5564 6.4178243817215455 2.453809659835189 2.105470622351823 3 -4 0
3932 1035 1 -1.1128 -0.17895989073777321 4.334283862174373 4.617640612770598 2 2 0
3092 755 1 -1.1128 4.602542052743861 7.318346427677361 4.640953385868249 -3 -2 0
3914 1029 1 -1.1128 3.542187209721992 3.0944456178007353 5.525805558943341 -2 4 0
1671 281 2 0.5564 6.015173980690353 1.3312182404595716 5.161815620242427 1 0 0
3093 755 2 0.5564 5.529878381621054 7.213698314813928 4.85384793162675 -3 -2 0
3034 735 2 0.5564 3.2466939650641806 5.614210085196121 6.755918706271646 0 2 0
3032 735 1 -1.1128 3.89002400207732 5.395526803383355 7.430110389491756 0 2 0
3033 735 2 0.5564 4.271191154769875 4.567339045082547 7.138482573770286 0 2 0
1053 75 2 0.5564 1.3232654349185176 6.852471959237584 5.0619633095633665 1 -2 0
1856 343 1 -1.1128 8.538829232215852 7.68298721476709 15.214640042942559 -5 1 0
4366 1179 2 0.5564 3.0151341036591295 -0.3171313627158165 4.255399105879895 -2 1 0
492 2 4 0 12.2802 7.09 20.3563331933874 0 0 0
2951 708 1 -1.1128 1.217100426402853 1.6010407043828718 6.403272998696309 1 4 0
1672 281 2 0.5564 4.817759321715488 2.186441868372964 4.805886300870577 1 0 0
1349 174 1 -1.1128 5.77357330321463 3.088750281032371 1.792384080438495 3 -4 0
2952 708 2 0.5564 1.8374149125214505 1.396834472225783 7.103088956821534 1 4 0
1670 281 1 -1.1128 5.282101691205027 1.3897699437281756 4.549108346962801 1 0 0
3387 853 2 0.5564 3.7900167713680832 0.2670204057364715 9.093662377441644 2 -1 0
3961 1044 2 0.5564 6.212939293919903 5.938178260753712 0.31184667956621376 -3 0 0
2341 504 2 0.5564 3.4596060599327734 5.2342425632387295 2.7212340022075314 0 2 0
3933 1035 2 0.5564 -0.8494365158244568 4.995270921837486 4.445036604073858 2 2 0
1657 276 2 0.5564 6.441209422903606 6.9899791425024835 7.2503006892605155 -5 4 0
1191 121 2 0.5564 10.709471055886274 -0.25437742163318894 10.603379538993426 -4 -3 0
1625 266 1 -1.1128 13.660978786026627 5.550689544403727 12.450215260142498 -4 0 0
2596 589 2 0.5564 7.719189117678011 3.429535798468404 17.998290931925894 -1 0 0
1269 147 2 0.5564 13.55846706646035 2.098019506966232 1.7238943841072765 6 4 0
2077 416 2 0.5564 4.32103312072066 1.4728818082525597 1.7079417984844616 2 2 0
1858 343 2 0.5564 9.388806958257652 7.264541123850295 15.077992529983696 -5 1 0
2904 692 2 0.5564 7.313743631345816 0.7662035996343182 0.39162265776622024 -1 3 0
2953 708 2 0.5564 1.4612019674700145 1.0143194803165998 5.687447048008297 1 4 0
1981 384 2 0.5564 0.8546945373050638 3.9344172764919407 1.5891326586462413 3 1 0
1359 177 2 0.5564 13.647537170872484 5.721845464113366 3.703097327745889 -4 0 0
434 2 4 0 8.59617 0.709 20.3563331933874 0 0 0
4209 1127 2 0.5564 11.700698289539412 0.70703313829576 6.266209852577475 4 -2 0
4039 1070 2 0.5564 13.610183210456482 3.9073512513695943 4.956053235811504 0 -4 0
3699 957 2 0.5564 -0.9927795533062276 0.25261118136474503 1.1618366100799526 -2 -2 0
4277 1150 1 -1.1128 -0.8683085717372451 3.17353809271725 9.119413199863557 -3 0 0
4009 1060 2 0.5564 11.616672141424703 5.318077608259512 2.010111866020339 -1 -5 0
900 24 2 0.5564 -0.4154733614556908 0.39405137675731683 17.250087892090686 -2 -1 0
2408 527 1 -1.1128 8.451217668421645 1.66746691470144 1.4072963660780586 2 3 0
1358 177 1 -1.1128 12.982774267419709 6.258332001081059 3.271233013086295 -4 0 0
3603 925 2 0.5564 12.439147237011014 6.585967094494395 8.723993510785801 -3 -2 0
4365 1179 2 0.5564 1.9658713043929876 -0.23275981578603103 3.1673635221488707 -2 1 0
2833 668 2 0.5564 7.782914840358098 5.24497707714613 1.9654263367527678 -1 2 0
2787 653 2 0.5564 7.6443420354637475 4.539637050586176 4.518614367429957 -1 -1 0
4279 1150 2 0.5564 -1.0006820805207852 2.563485099076017 8.393782998328108 -3 0 0
2410 527 2 0.5564 9.359248678572527 1.8960553240889346 1.208643295455721 2 3 0
2997 723 2 0.5564 8.820017838999894 0.36439431892016055 14.363226580007716 -1 2 0
1655 276 1 -1.1128 6.874861890515701 7.066979111622356 6.400448964120808 -5 4 0
1266 146 2 0.5564 7.845954615363776 1.4548366961248498 6.728365789610258 0 0 0
2831 668 1 -1.1128 8.166599917340491 5.13572112595921 2.835528757565089 -1 2 0
2832 668 2 0.5564 9.101696158274924 5.013168918773905 2.6717992976352867 -1 2 0
1851 341 2 0.5564 11.735372009676524 2.4391925513487807 5.205775080860225 6 3 0
2786 653 1 -1.1128 7.468015591530463 4.583403288241082 5.458417076222401 -1 -1 0
1369 180 2 0.5564 4.26180793665815 7.4022441863804085 1.165937888269334 6 4 0
1850 341 1 -1.1128 11.834145944076067 3.3707096605791356 5.0089169140359235 6 3 0
1367 180 1 -1.1128 4.76349953702181 6.882920259267719 0.5375775104386901 6 4 0
4311 1161 2 0.5564 11.447409949963093 1.9132066625883837 1.7971631532207948 2 -1 0
4310 1161 1 -1.1128 11.103715285975124 2.2105013157509883 0.9547144297894699 2 -1 0
4312 1161 2 0.5564 10.873354023520426 3.1281608617669026 1.0998536265532408 2 -1 0
1852 341 2 0.5564 11.139076942613256 3.79697399124846 5.510323041389247 6 3 0
3038 737 1 -1.1128 -1.148962046635849 3.7996296060040304 12.326575738563758 2 -8 0
1267 146 2 0.5564 8.00543682119705 2.775599249488514 6.005836951903089 0 0 0
2788 653 2 0.5564 8.31018519071708 4.814903167162345 5.850072249869178 -1 -1 0
1656 276 2 0.5564 6.863576647243593 6.1787267792186915 6.043912490665126 -5 4 0
1969 380 2 0.5564 12.782834028248482 0.7415214420729644 7.987485660052177 0 5 0
1268 147 1 -1.1128 13.527939659574676 1.382243888839175 2.358690733366989 6 4 0
4109 1094 1 -1.1128 10.059859990856792 4.583092147353626 6.637990724827448 -3 2 0
3900 1024 2 0.5564 11.609639913918368 6.368279961728973 4.658387166613275 1 0 0
4111 1094 2 0.5564 10.478898311649436 5.436084447306144 6.523780471645142 -3 2 0
3901 1024 2 0.5564 11.952920906481001 6.567620016845252 6.1193171746563415 1 0 0
3899 1024 1 -1.1128 11.293420879640609 6.784409352553014 5.460306460176617 1 0 0
1967 380 1 -1.1128 11.88599558379313 1.071381346320166 8.043204989388235 0 5 0
2552 575 1 -1.1128 1.8596887086947533 -0.3112226291620165 8.734514838771592 5 0 0
1265 146 1 -1.1128 7.934645945083918 1.8332343223188527 5.8536181377424885 0 0 0
429 2 4 0 7.36814 0 20.3563331933874 0 0 0
4127 1100 1 -1.1128 -1.0914438289520318 0.49334381293183954 7.749486014482363 -3 2 0
4110 1094 2 0.5564 10.127252196544584 4.406314898481876 7.576310217731914 -3 2 0
3532 901 2 0.5564 8.51195121853224 -0.23094907436563483 12.596748250015265 0 6 0
3602 925 1 -1.1128 12.372635721923018 5.968291625787717 7.995787250680831 -3 -2 0
1350 174 2 0.5564 6.288790117162211 3.735646207421991 1.310398858556471 3 -4 0
2960 711 1 -1.1128 5.640778733563475 0.43198520759709874 11.673233064107206 -7 2 0
1233 135 2 0.5564 0.4780195614831384 7.615268119297372 13.23183775765933 -2 1 0
4126 1099 2 0.5564 10.819766791282555 5.070124893877676 17.487031399071604 1 4 0
4128 1100 2 0.5564 -0.727042611720109 0.95333723115442 6.993279644426849 -3 2 0
4259 1144 1 -1.1128 -0.07748908757775709 5.110812524444778 7.499477887807377 5 -1 0
1099 90 2 0.5564 6.181954857176706 1.1772853735529092 8.83904790777167 1 1 0
3386 853 1 -1.1128 4.195502062789163 1.0469378235386904 9.4725317969869 2 -1 0
1097 90 1 -1.1128 7.017433786199956 1.2386706182569196 8.375973147184213 1 1 0
487 2 4 0 8.59617 6.381 20.3563331933874 0 0 0
2076 416 2 0.5564 4.404699508353517 -0.008125141496144225 2.010454885845632 2 2 0
4261 1144 2 0.5564 0.047146551040792475 4.533065230426496 6.7465468928773795 5 -1 0
1853 342 1 -1.1128 -1.1355002403575227 6.70692487902668 17.115097511046006 -1 3 0
4122 1098 2 0.5564 3.0166083464281432 2.1736361475659147 14.437893955513216 -3 -2 0
4121 1098 1 -1.1128 2.8578107751997024 1.287872516327505 14.764139379499978 -3 -2 0
2650 607 2 0.5564 1.0915457576309937 5.644278019004214 13.596863960437808 0 0 0
981 51 2 0.5564 5.243333659623508 1.334327339057759 15.066188060776398 1 0 0
2649 607 2 0.5564 2.077053482734098 4.5539474442411985 13.959966275794075 0 0 0
1478 217 1 -1.1128 -0.49505396562783566 -0.41859380212626285 13.11004213440179 2 3 0
3465 879 2 0.5564 -1.707286648126185 1.8170150394407723 10.686140625880492 1 -3 0
3980 1051 1 -1.1128 4.203231298130776 6.494183439034193 13.499125459968726 1 0 0
2764 645 2 0.5564 1.000966408840748 5.711156138557214 11.101880119405623 0 0 0
3039 737 2 0.5564 -0.7177066079939344 4.644087632847608 12.195650907826131 2 -8 0
2763 645 2 0.5564 0.021481920885069512 6.861772240377098 11.194500107579936 0 0 0
3192 788 2 0.5564 3.5636181103046884 3.8771253415843008 12.23219961072927 -4 -2 0
4272 1148 2 0.5564 2.6294804602695088 5.36028875364253 9.01151870682375 0 3 0
3040 737 2 0.5564 -0.6796181414184302 3.4015804852202174 13.059722225431662 2 -8 0
975 49 2 0.5564 3.385235985529008 5.410929132549845 0.7452910976097715 -3 0 0
3191 788 1 -1.1128 2.819263911185584 3.5759473635085075 12.753219633690106 -4 -2 0
2762 645 1 -1.1128 0.3133958568457812 6.0769946477645265 11.658331195089584 0 0 0
4184 1119 1 -1.1128 1.7230896929028832 2.014911132263865 10.622473241864792 0 0 0
4186 1119 2 0.5564 0.9979668453066943 2.5561204745760593 10.310193814420671 0 0 0
4185 1119 2 0.5564 1.3110304296469477 1.1942813153515135 10.892663615841046 0 0 0
982 51 2 0.5564 5.969896269463281 2.4500111304256578 14.34559675702602 1 0 0
2124 432 2 0.5564 0.9408268769927477 6.689686125478322 8.158308499196188 -1 -6 0
4132 1101 2 0.5564 4.90352855485397 5.440846224932109 11.972922697450674 -2 -3 0
4130 1101 1 -1.1128 4.925531365089757 5.037989321777634 11.104906078663122 -2 -3 0
1577 250 1 -1.1128 11.890029859090463 0.27800139606304497 14.133250538743184 1 1 0
4096 1089 2 0.5564 4.207281698953896 -0.1540199085692301 12.66002529320974 -1 3 0
4271 1148 1 -1.1128 2.5206667914235177 5.4288357551949895 9.960040018744643 0 3 0
4273 1148 2 0.5564 3.41390277641948 5.439733314870932 10.303904423430374 0 3 0
3193 788 2 0.5564 2.334413055368575 2.9958854823497485 12.166121684904866 -4 -2 0