LAMMPS data file via write_data, version 2 Aug 2023, timestep = 7250000, units = real

4432 atoms
4 atom types
2400 bonds
1 bond types
1200 angles
1 angle types
0 impropers
1 improper types

-1.8420299999999998 30.08661 xlo xhi
-0.709 33.323 ylo yhi
-150 150 zlo zhi

Masses

1 15.9994
2 1.00794
3 12.0107
4 12.0107

Pair Coeffs # lj/cut/tip4p/long

1 0.1852 3.1589
2 0 0
3 0.0859 3.3997
4 0.0859 3.3997

Bond Coeffs # harmonic

1 5000 0.9572

Angle Coeffs # harmonic

1 500 104.52

Atoms # full

1 1 3 0 0 0 -16.168203030381882 0 0 0
2 1 3 0 -1.22802 0.709 -16.168203030381882 0 0 0
3 1 3 0 -1.22802 2.127 -16.168203030381882 0 0 0
4 1 3 0 0 2.836 -16.168203030381882 0 0 0
5 1 3 0 2.45605 0 -16.168203030381882 0 0 0
6 1 3 0 1.22802 0.709 -16.168203030381882 0 0 0
7 1 3 0 1.22802 2.127 -16.168203030381882 0 0 0
8 1 3 0 2.45605 2.836 -16.168203030381882 0 0 0
9 1 3 0 4.9121 0 -16.168203030381882 0 0 0
10 1 3 0 3.68407 0.709 -16.168203030381882 0 0 0
11 1 3 0 3.68407 2.127 -16.168203030381882 0 0 0
12 1 3 0 4.9121 2.836 -16.168203030381882 0 0 0
14 1 3 0 6.14012 0.709 -16.168203030381882 0 0 0
15 1 3 0 6.14012 2.127 -16.168203030381882 0 0 0
53 1 3 0 0 4.254 -16.168203030381882 0 0 0
54 1 3 0 -1.22802 4.963 -16.168203030381882 0 0 0
55 1 3 0 -1.22802 6.381 -16.168203030381882 0 0 0
56 1 3 0 0 7.09 -16.168203030381882 0 0 0
57 1 3 0 2.45605 4.254 -16.168203030381882 0 0 0
58 1 3 0 1.22802 4.963 -16.168203030381882 0 0 0
59 1 3 0 1.22802 6.381 -16.168203030381882 0 0 0
60 1 3 0 2.45605 7.09 -16.168203030381882 0 0 0
61 1 3 0 4.9121 4.254 -16.168203030381882 0 0 0
62 1 3 0 3.68407 4.963 -16.168203030381882 0 0 0
63 1 3 0 3.68407 6.381 -16.168203030381882 0 0 0
64 1 3 0 4.9121 7.09 -16.168203030381882 0 0 0
66 1 3 0 6.14012 4.963 -16.168203030381882 0 0 0
67 1 3 0 6.14012 6.381 -16.168203030381882 0 0 0
13 1 3 0 7.36814 0 -16.168203030381882 0 0 0
16 1 3 0 7.36814 2.836 -16.168203030381882 0 0 0
17 1 3 0 9.82419 0 -16.168203030381882 0 0 0
18 1 3 0 8.59617 0.709 -16.168203030381882 0 0 0
19 1 3 0 8.59617 2.127 -16.168203030381882 0 0 0
20 1 3 0 9.82419 2.836 -16.168203030381882 0 0 0
21 1 3 0 12.2802 0 -16.168203030381882 0 0 0
22 1 3 0 11.0522 0.709 -16.168203030381882 0 0 0
23 1 3 0 11.0522 2.127 -16.168203030381882 0 0 0
24 1 3 0 12.2802 2.836 -16.168203030381882 0 0 0
26 1 3 0 13.5083 0.709 -16.168203030381882 0 0 0
27 1 3 0 13.5083 2.127 -16.168203030381882 0 0 0
65 1 3 0 7.36814 4.254 -16.168203030381882 0 0 0
68 1 3 0 7.36814 7.09 -16.168203030381882 0 0 0
69 1 3 0 9.82419 4.254 -16.168203030381882 0 0 0
70 1 3 0 8.59617 4.963 -16.168203030381882 0 0 0
71 1 3 0 8.59617 6.381 -16.168203030381882 0 0 0
72 1 3 0 9.82419 7.09 -16.168203030381882 0 0 0
73 1 3 0 12.2802 4.254 -16.168203030381882 0 0 0
74 1 3 0 11.0522 4.963 -16.168203030381882 0 0 0
75 1 3 0 11.0522 6.381 -16.168203030381882 0 0 0
76 1 3 0 12.2802 7.09 -16.168203030381882 0 0 0
78 1 3 0 13.5083 4.963 -16.168203030381882 0 0 0
79 1 3 0 13.5083 6.381 -16.168203030381882 0 0 0
4053 1075 2 0.5564 2.8401351409600655 5.840818302187151 -14.282043748422783 -4 -2 0
3656 943 1 -1.1128 5.1680579122134525 2.788706012331143 -12.46910676336013 0 2 0
3658 943 2 0.5564 5.586449384900815 1.9383064391611515 -12.334940052847552 0 2 0
3657 943 2 0.5564 5.888397537646557 3.4182541632114836 -12.437295281731906 0 2 0
4054 1075 2 0.5564 3.618175258431742 6.591855054792331 -13.222568882926337 -4 -2 0
4052 1075 1 -1.1128 3.036470264905718 5.841647560178101 -13.345196949570562 -4 -2 0
3992 1055 1 -1.1128 2.659095744054188 0.9263545869155692 -10.386606864681184 0 -1 0
2935 702 2 0.5564 3.073369346196204 2.8653049511565123 -12.603293137331987 -4 0 0
3958 1043 2 0.5564 0.06408830164076404 0.4644172646552187 -8.232433189439131 1 -5 0
1948 373 2 0.5564 0.4065107967375558 7.631422798238753 -11.443538743847805 0 1 0
2864 679 1 -1.1128 3.242601599077423 5.247843507615972 -10.326953230757054 3 2 0
2934 702 2 0.5564 1.9672366643529033 2.0399868665466867 -13.225556973662293 -4 0 0
2866 679 2 0.5564 3.150066694909686 5.207459248017532 -11.278814761183655 3 2 0
2648 607 1 -1.1128 5.66206419188796 -0.19182172612953213 -12.065479096253714 0 0 0
1946 373 1 -1.1128 -0.19418806038591366 7.372473992399329 -12.142353184358505 0 1 0
3993 1055 2 0.5564 2.780559659360432 1.5898293742052862 -9.707430728826008 0 -1 0
2865 679 2 0.5564 3.785045975058127 4.490698644584116 -10.106230837951893 3 2 0
2650 607 2 0.5564 4.88868054962143 -0.5799322741724505 -12.474721147307777 0 0 0
3752 975 1 -1.1128 5.632715526813272 6.550013305581707 -10.602032466677132 1 -1 0
3753 975 2 0.5564 5.4242169744073845 7.356784983101043 -11.073072047834357 1 -1 0
3994 1055 2 0.5564 2.1154764344525585 1.355798287966162 -11.04712778489552 0 -1 0
1446 206 2 0.5564 0.7465271878593763 3.914095384885923 -12.9060160307755 -3 6 0
2785 652 2 0.5564 5.0783505651400525 3.8554149789410532 -8.391302579765702 2 -2 0
2933 702 1 -1.1128 2.120516220367899 2.806121337816262 -12.672589008019289 -4 0 0
3956 1043 1 -1.1128 0.3163361274390305 -0.3500155004015985 -7.797344137371466 1 -5 0
1345 172 2 0.5564 -1.56075027748151 6.161354901424535 -8.02229519445144 -2 1 0
2253 475 2 0.5564 2.17974768179854 5.976247396531607 -8.964781504097706 4 0 0
1447 206 2 0.5564 0.21177973578176593 5.27781063240827 -12.523620756004359 -3 6 0
2130 434 2 0.5564 3.9270717642577533 -0.12889751249294665 -9.241745573471025 -2 0 0
2783 652 1 -1.1128 4.83696670414095 3.133491439225319 -8.971639752709795 2 -2 0
2254 475 2 0.5564 1.3095604511376069 5.711970144482825 -7.754480751972955 4 0 0
925 32 2 0.5564 1.3819246277239068 3.8954501120741636 -10.082991006533433 1 -2 0
924 32 2 0.5564 0.2647905992132967 4.105074573339729 -11.08297375540683 1 -2 0
2252 475 1 -1.1128 1.4545924638972283 6.343323428095614 -8.459174593119078 4 0 0
1445 206 1 -1.1128 -0.06861573159267496 4.402458072276425 -12.790771180455241 -3 6 0
3754 975 2 0.5564 4.7898683742568675 6.108546896523641 -10.497399978710972 1 -1 0
1344 172 2 0.5564 -0.631644960491341 5.844034563258315 -9.174669534821188 -2 1 0
3960 1044 2 0.5564 -1.2013969393418247 -0.5750581470397194 -11.935050554269377 -3 0 0
2905 692 2 0.5564 -0.3360913629676703 2.5124985513236635 -9.434637787219044 0 3 0
3674 949 1 -1.1128 2.3736003656151925 2.232126666033255 -7.9937564180293865 3 -3 0
2784 652 2 0.5564 4.175201114628316 2.6438978482323128 -8.483174032084122 2 -2 0
3676 949 2 0.5564 2.009769613549511 1.3880239459846373 -7.7266419420622094 3 -3 0
1494 222 2 0.5564 -1.6113333565584007 2.7664446915288416 -12.419878504935024 -5 1 0
923 32 1 -1.1128 0.43298930224985643 4.003936191693165 -10.146109716453807 1 -2 0
2904 692 2 0.5564 -1.2892510358359826 2.264642119730791 -8.284876812526935 0 3 0
2903 692 1 -1.1128 -0.8181785478776696 1.8168240083042422 -8.987575557441009 0 3 0
2129 434 1 -1.1128 4.579937002408252 -0.35581841915616363 -8.579548953383016 -2 0 0
1699 290 2 0.5564 5.378412939566034 7.394629876007252 -8.90077610346194 -1 1 0
1343 172 1 -1.1128 -1.4649844051693155 6.26756298742326 -8.968752802935354 -2 1 0
2398 523 2 0.5564 6.176509758766371 5.4226116265957796 -11.867198403103705 2 3 0
1185 119 2 0.5564 6.369920700946468 2.0347947111860822 -9.831603480417703 -1 -2 0
1186 119 2 0.5564 6.20283626470631 0.8141520886732149 -10.71138226037364 -1 -2 0
1184 119 1 -1.1128 6.857738937423624 1.3068962113719889 -10.216868546494577 -1 -2 0
4076 1083 1 -1.1128 10.297150400784034 0.19613563269376688 -12.992919901978198 4 1 0
2396 523 1 -1.1128 6.817004130753674 5.099772964418859 -12.501054991493039 2 3 0
2397 523 2 0.5564 7.112001689359899 5.883575561506898 -12.964587019592836 2 3 0
1537 236 2 0.5564 8.4659664239008 4.4044714810189065 -12.23595414223128 8 7 0
1536 236 2 0.5564 9.439170099809715 3.51901277129282 -11.487131889047472 8 7 0
1535 236 1 -1.1128 9.400736326154826 4.268745761640164 -12.080980905519056 8 7 0
3489 887 2 0.5564 9.52210820561005 5.989415037557999 -9.909559247374489 3 5 0
4077 1083 2 0.5564 10.380482487868347 0.7592476131019223 -13.76246059418022 4 1 0
4078 1083 2 0.5564 10.083567889186307 0.7962287658736167 -12.278421649178158 4 1 0
3479 884 1 -1.1128 11.234275986747155 6.865203580276748 -12.60596427926408 -5 0 0
4417 1196 2 0.5564 12.103099594779957 3.1471691927686116 -10.872938722003312 -2 -4 0
4415 1196 1 -1.1128 12.385554915551198 2.896148800939234 -11.752393771233127 -2 -4 0
4416 1196 2 0.5564 12.735963053974595 3.702359403299312 -12.131168534660105 -2 -4 0
3813 995 2 0.5564 9.068034997194292 7.6908049796823486 -9.809657383401285 0 1 0
2583 585 2 0.5564 9.978251036699616 1.9695373348905223 -10.052217244879023 -1 1 0
2582 585 1 -1.1128 9.43925810595082 1.8204513685636665 -10.829065090604509 -1 1 0
1368 180 2 0.5564 12.916452507372744 6.149934090815204 -12.398299162460555 6 4 0
1367 180 1 -1.1128 13.60227058315631 5.498309809828034 -12.252439533502024 6 4 0
2795 656 1 -1.1128 14.042126482704823 7.045756162862334 -8.036965226961115 2 3 0
2584 585 2 0.5564 8.552045999739693 1.7083965107933567 -10.487697174108858 -1 1 0
3481 884 2 0.5564 10.743779008955725 6.106417152658221 -12.922016077440793 -5 0 0
4055 1076 1 -1.1128 11.156761602307121 3.147184276167462 -9.242831757427401 -1 3 0
4057 1076 2 0.5564 11.431854899378157 2.7639943853587323 -8.40993293989577 -1 3 0
4056 1076 2 0.5564 10.828183981636913 4.015693076131296 -9.010537152879095 -1 3 0
3027 733 2 0.5564 13.052094899867186 1.3823745108357408 -11.286454525882018 -4 1 0
3026 733 1 -1.1128 13.580222717714742 0.7130475324768943 -10.851351173190611 -4 1 0
3490 887 2 0.5564 10.767527131702733 6.11990577207816 -10.760322989915096 3 5 0
3028 733 2 0.5564 12.942461238174594 0.0762766467541789 -10.528838119039195 -4 1 0
3488 887 1 -1.1128 10.370588364104417 6.430926163687333 -9.946727495558292 3 5 0
3496 889 2 0.5564 13.789974977414662 2.588124768724869 -7.722435800877814 3 -3 0
3480 884 2 0.5564 10.576731520306913 7.554709150848085 -12.514044565321882 -5 0 0
969 47 2 0.5564 7.796365341102622 4.46940943015235 -9.030147386220074 2 -1 0
2649 607 2 0.5564 6.40093229165944 -0.6500074107780804 -12.46594167591394 0 0 0
4323 1165 2 0.5564 7.734400860649608 -0.10244595099724546 -9.731530353981135 6 -4 0
970 47 2 0.5564 7.31576785189714 5.74959616872461 -9.67979507302017 2 -1 0
2796 656 2 0.5564 13.100364926287867 7.167080519639836 -7.916129103910134 2 3 0
3413 862 1 -1.1128 7.728801561555317 2.898397694983996 -7.570882102278645 3 0 0
3415 862 2 0.5564 7.345909879918578 2.0217146890400453 -7.5384271059753285 3 0 0
968 47 1 -1.1128 8.056142862803043 5.374302078581995 -9.203107030234946 2 -1 0
1935 369 2 0.5564 11.060381092187233 7.433926293632828 -8.653950134564946 -2 -3 0
1281 151 2 0.5564 3.5481330104322675 -0.3654030011464237 -4.010918555934617 4 -3 0
4260 1144 2 0.5564 -0.9239553843064855 4.164454951588342 -0.5240212695159238 4 -1 0
1251 141 2 0.5564 0.7243082696626769 -0.3399660549590731 -1.8488376078992528 -1 1 0
2725 632 2 0.5564 -1.4378070936009069 6.730348285684396 -5.814467104067654 -2 1 0
958 43 2 0.5564 4.337228697881639 6.10479630743264 -6.458506678679389 -8 9 0
1765 312 2 0.5564 -1.0699117370146067 0.6375499380697934 -1.2398819192861228 -4 -2 0
1463 212 1 -1.1128 -1.8333898333855976 2.739145097479627 -3.740820670918492 0 4 0
3898 1023 2 0.5564 3.04271529808342 7.059143049363398 -2.381006099061177 2 -2 0
1276 149 2 0.5564 0.3058937049094236 3.4701063152772207 -2.941233968358925 -2 2 0
2238 470 2 0.5564 -1.7357957558561823 3.97585926248235 -6.514575620492337 3 3 0
2723 632 1 -1.1128 -1.7338826565471273 5.852044835634038 -6.053534365903499 -2 1 0
1252 141 2 0.5564 1.6671531436063514 0.47699739868218066 -0.9912166436486951 -1 1 0
1763 312 1 -1.1128 -1.7529297130857568 0.05862292499907732 -1.578356117366431 -4 -2 0
3957 1043 2 0.5564 0.6212205560462741 -0.07561398265741069 -6.932485066289582 1 -5 0
1356 176 2 0.5564 0.575372096994924 2.0364151398862065 -0.49616558250843235 -5 4 0
1275 149 2 0.5564 1.5406773936551839 4.234370246783592 -3.3691426311477057 -2 2 0
1274 149 1 -1.1128 1.1669033249004577 3.3535547001334374 -3.3428678648359873 -2 2 0
3037 736 2 0.5564 2.1596793382897816 4.770294616017728 -6.088385447226365 6 2 0
957 43 2 0.5564 4.963962413562209 4.846435287367604 -5.896699989378282 -8 9 0
1683 285 2 0.5564 5.436013864077555 0.2135569893307367 -7.008710507956278 1 -1 0
3963 1045 2 0.5564 -0.5381374314123663 -0.6158169460410046 -3.1839000623120484 3 1 0
1509 227 2 0.5564 3.085034535445998 2.394956579245571 -1.4585340311636286 4 5 0
1836 336 2 0.5564 3.934784299864991 1.9112295470777139 -3.5195832462026395 -3 1 0
1835 336 1 -1.1128 4.525537948020928 2.397528819336 -2.9444707780769583 -3 1 0
3984 1052 2 0.5564 0.6884933763389253 0.514532114596644 -4.602825907745058 1 -2 0
3675 949 2 0.5564 1.9433368166314438 2.869933708159798 -7.424274112471212 3 -3 0
1280 151 1 -1.1128 3.593064921538344 0.46076452137279134 -4.492231857114356 4 -3 0
3985 1052 2 0.5564 0.7517168234657918 1.9711865817390417 -5.010317531594467 1 -2 0
1684 285 2 0.5564 5.351658070574075 0.34059859527444836 -5.50251060039158 1 -1 0
1282 151 2 0.5564 2.718798454055611 0.5680833885149433 -4.866899378810304 4 -3 0
3461 878 1 -1.1128 2.4521592649457924 5.860610330006369 -3.690094177602626 4 -2 0
3983 1052 1 -1.1128 0.9401609973239692 1.0877410308880804 -5.326929106374583 1 -2 0
3463 878 2 0.5564 3.3030348800510114 5.424337959196835 -3.733783378873879 4 -2 0
1682 285 1 -1.1128 5.977464356609485 0.2402790678422765 -6.219819620024265 1 -1 0
1837 336 2 0.5564 5.268637312815757 1.8091595948185129 -2.8108428316935563 -3 1 0
1508 227 1 -1.1128 2.511913865034945 2.0882853942944215 -0.7558838149444517 4 5 0
3462 878 2 0.5564 2.458557774280489 6.47327573482171 -4.425506634602826 4 -2 0
956 43 1 -1.1128 4.1172996801560355 5.251866341702163 -6.083842671437118 -8 9 0
3036 736 2 0.5564 0.7378517263124702 4.38106172512305 -5.743715360567485 6 2 0
1775 316 1 -1.1128 0.4344460189837907 7.037978561694484 -0.39782031867783846 1 -1 0
3035 736 1 -1.1128 1.3597476336041385 4.409605895147772 -6.4708070615986575 6 2 0
1776 316 2 0.5564 1.1781604052399473 7.012586487800732 -0.9998825603505652 1 -1 0
4261 1144 2 0.5564 -0.8043403065920003 5.673454334694987 -0.5015827062459979 4 -1 0
4259 1144 1 -1.1128 -1.4443166126432034 4.965936229942253 -0.5795462581335827 4 -1 0
891 21 2 0.5564 5.0045743365253035 4.241521097781442 -2.8542383512872997 -5 0 0
1250 141 1 -1.1128 1.0986030071556585 -0.29274113960405096 -0.9691153571775281 -1 1 0
1355 176 1 -1.1128 -0.3248434125955571 2.215100522537705 -0.22428655137519404 -5 4 0
890 21 1 -1.1128 4.943929912193934 5.178101416118649 -3.042317512114628 -5 0 0
892 21 2 0.5564 5.530432969236603 5.311828646978413 -3.7868734906125985 -5 0 0
3896 1023 1 -1.1128 2.9141351371190716 7.7891212830334515 -1.775340373999704 2 -2 0
1478 217 1 -1.1128 9.843639348388345 5.465043345640678 -0.7110092779696744 2 3 0
3636 936 2 0.5564 13.271500346199417 0.6671402697890225 -0.9236239795463923 -1 -1 0
1504 225 2 0.5564 12.627329928495833 2.8266379635494596 -2.188275433674879 8 -3 0
3635 936 1 -1.1128 13.558972277948067 1.5738041448357623 -1.0310810338667917 -1 -1 0
3768 980 2 0.5564 7.897121873364067 -0.17516448044126598 -5.698742313138659 -2 0 0
1480 217 2 0.5564 9.739937354562617 4.586765621939715 -0.3448010040890622 2 3 0
1479 217 2 0.5564 10.550329776471765 5.37649804769934 -1.350525810529616 2 3 0
1954 375 2 0.5564 6.685810051662822 1.6545694511988442 -0.7737840096979153 -2 -5 0
3767 980 1 -1.1128 8.754319046964747 -0.43413774192638976 -5.360541042974156 -2 0 0
4340 1171 1 -1.1128 11.013925363122379 7.538787809137516 -4.840640298861543 2 -2 0
3495 889 2 0.5564 13.60814570268442 1.9628379203113349 -6.355744233420152 3 -3 0
4204 1125 2 0.5564 6.946116862865273 3.899205384531662 -6.258901795539103 4 2 0
3919 1030 2 0.5564 7.869102077511473 1.4582090078535777 -3.0961617566907464 5 0 0
4202 1125 1 -1.1128 6.673338504734848 4.381653939938258 -5.478474355913628 4 2 0
4256 1143 1 -1.1128 12.892787203492006 5.4799031049139675 -3.833367531530839 0 6 0
4341 1171 2 0.5564 11.268117443961382 7.602059269193855 -5.761300223219469 2 -2 0
4264 1145 2 0.5564 7.8732022956826615 7.024763894997754 -2.1979196923758844 -2 0 0
1074 82 2 0.5564 6.7403406795963825 5.9226062123259595 -0.6984449865708613 0 -2 0
4262 1145 1 -1.1128 7.910015360956511 6.082430801983791 -2.3618866885961487 -2 0 0
3024 732 2 0.5564 8.47899683496158 5.839043821379864 -4.064217479108098 0 -1 0
2403 525 2 0.5564 13.760171168820623 4.388101504726656 -6.468213997798885 1 -2 0
3494 889 1 -1.1128 13.25010166401101 2.6367957663255015 -6.933512817228576 3 -3 0
4257 1143 2 0.5564 12.64838528103935 4.647635562708755 -3.4286027755029926 0 6 0
3025 732 2 0.5564 9.57437711905866 6.319597802181608 -4.992174954716175 0 -1 0
4203 1125 2 0.5564 7.43428505232767 4.9144301270657795 -5.247514014687097 4 2 0
1297 156 2 0.5564 10.041187449828318 0.47272440514776376 -1.7375731178290184 -1 0 0
1503 225 2 0.5564 11.121725021720527 2.796370882812461 -2.3436093508888254 8 -3 0
3030 734 2 0.5564 14.027996755036057 2.998905244733165 -0.0020831155721784903 2 -1 0
3023 732 1 -1.1128 8.73094644015028 5.867013835150615 -4.987240414855313 0 -1 0
2404 525 2 0.5564 13.730860892804676 5.4867590404452455 -5.427066951662466 1 -2 0
1502 225 1 -1.1128 11.878206537071812 3.378839982618215 -2.4121444585190677 8 -3 0
1295 156 1 -1.1128 10.0396732894896 0.9348592960375254 -2.575821821041382 -1 0 0
1094 89 1 -1.1128 10.124306005007767 1.7924412959146034 -6.664857744559785 0 -2 0
3917 1030 1 -1.1128 7.039249093821554 1.1631934022930661 -2.721272927382917 5 0 0
4263 1145 2 0.5564 8.525201302988505 5.749038431083059 -1.7087197553323028 -2 0 0
1095 89 2 0.5564 9.785994635927711 1.1434260937908902 -6.047964650614071 0 -2 0
3918 1030 2 0.5564 7.143824241375078 0.2169509933033371 -2.6216672274067196 5 0 0
4258 1143 2 0.5564 13.521376882839254 5.867502710165962 -3.224369699326044 0 6 0
3414 862 2 0.5564 8.516572318948011 2.8363627411701 -7.030693884448532 3 0 0
4342 1171 2 0.5564 11.730824330552116 7.058663450922855 -4.4261900397159835 2 -2 0
1096 89 2 0.5564 10.995346815924913 2.008676928021932 -6.332048746066469 0 -2 0
1296 156 2 0.5564 10.261411878977848 0.2630767613951236 -3.2206253210415814 -1 0 0
3220 797 2 0.5564 8.175099245530593 7.618317570832788 -6.170547079402797 -1 1 0
2619 597 2 0.5564 2.5230908648898427 1.259941181511541 5.636328120450764 1 1 0
2178 450 2 0.5564 4.738442639615158 5.865459513040447 4.138806129099173 -3 1 0
3286 819 2 0.5564 0.5946226898133171 0.7542902911349179 2.4650792446976513 -3 0 0
2177 450 1 -1.1128 4.972914736640537 6.789914691334712 4.220275649638751 -3 1 0
2168 447 1 -1.1128 2.0501371313281673 3.6106954895885393 2.8466835916227518 2 0 0
2169 447 2 0.5564 2.5921704168460016 3.6402867927162856 3.63507278430567 2 0 0
2170 447 2 0.5564 1.6654971631218585 4.485178453021833 2.7869383305012057 2 0 0
3284 819 1 -1.1128 0.21809720722499784 1.633468065090019 2.5038950589919695 -3 0 0
3285 819 2 0.5564 0.9710035557176354 2.2118127518605686 2.6259046248953126 -3 0 0
2618 597 1 -1.1128 1.7016927438857778 1.4917344226345803 5.202956658200301 1 1 0
4038 1070 2 0.5564 -0.44235781737933166 3.4192156200084822 3.5290177634721887 1 -4 0
4037 1070 1 -1.1128 -1.2167710605499846 3.9498242959982064 3.7160253021911127 1 -4 0
4310 1161 1 -1.1128 4.468575171214857 3.9267545425219557 4.271794683567828 2 -1 0
4311 1161 2 0.5564 4.5610937994959535 3.9262546968633614 5.224512847110402 2 -1 0
1418 197 1 -1.1128 -0.38165109026817173 5.414551358446374 6.187619068041312 6 0 0
1420 197 2 0.5564 -0.4365274475878455 5.071090853704148 5.29584800794741 6 0 0
2620 597 2 0.5564 1.721851238182346 1.0091381707954616 4.3765633319718225 1 1 0
4312 1161 2 0.5564 5.01355895788162 3.1970010439149346 3.9773722473429025 2 -1 0
1777 316 2 0.5564 0.8307353777828702 7.116682581133338 0.4699319126122242 1 -1 0
4179 1117 2 0.5564 5.1575456741015 1.4059706209290648 6.617726507880461 -2 1 0
4178 1117 1 -1.1128 4.232741582837378 1.6441945324971023 6.552781338442548 -2 1 0
1419 197 2 0.5564 -0.2999749542451146 6.361637955559012 6.075422797474449 6 0 0
2844 672 2 0.5564 -0.9242114126287405 0.3866905214571331 6.152698028566113 0 2 0
2810 661 1 -1.1128 3.9789320086250974 2.1270386137820236 1.5350344149165003 2 1 0
2812 661 2 0.5564 3.5070269430156387 2.862459960940098 1.925798987811456 2 1 0
1357 176 2 0.5564 -0.3156129104544024 2.1011627673659476 0.7260648368315498 -5 4 0
3012 728 2 0.5564 -1.4202431868041978 7.148542803488875 2.6278942548533637 -2 3 0
2811 661 2 0.5564 3.5817945134492875 1.3504093642576518 1.9291966559994869 2 1 0
2179 450 2 0.5564 5.514266062992087 6.968855340832834 3.451412834202157 -3 1 0
3786 986 2 0.5564 5.738750709880406 1.9747573711440611 2.638517581737827 4 0 0
1953 375 2 0.5564 5.752702053835956 2.4648455394626474 0.1006635136959749 -2 -5 0
3608 927 1 -1.1128 1.4531733661598933 6.182855546437323 2.245436202514105 -4 -2 0
3610 927 2 0.5564 2.0472066609613466 6.918484218680764 2.0964190131499474 -4 -2 0
4039 1070 2 0.5564 -1.8237556983728775 3.346009440714094 4.1440598290220425 1 -4 0
3011 728 1 -1.1128 -0.7676811918932287 7.4430466948706675 3.2632398096730366 -2 3 0
1982 385 1 -1.1128 2.834197369260173 -0.2672635380536951 2.7346066757978686 2 -2 0
2843 672 1 -1.1128 -0.3850534652797827 0.5220789518112834 6.9319355375319835 0 2 0
1927 366 2 0.5564 1.7460719203649173 3.295697634414303 6.684105117513078 -1 1 0
4180 1117 2 0.5564 4.099714434997881 2.2829810868233946 7.253131462462453 -2 1 0
2845 672 2 0.5564 0.2635948254289372 1.1733201204612913 6.664776725311885 0 2 0
1926 366 2 0.5564 0.6619713039380326 4.290374521043279 7.040813269223279 -1 1 0
1925 366 1 -1.1128 1.3531917948392103 3.7529405518454197 7.427614230251025 -1 1 0
4402 1191 2 0.5564 5.795716347229046 6.720767765878302 7.374356910817374 -2 1 0
4400 1191 1 -1.1128 5.642359970830655 5.807201813940248 7.133293417708649 -2 1 0
3609 927 2 0.5564 0.6687806337055137 6.580545850319754 2.6233266355694043 -4 -2 0
2412 528 2 0.5564 -1.8124353610592223 5.11721520405727 2.421105899636124 -1 2 0
1075 82 2 0.5564 6.007758462278652 7.020040338510244 0.04375224313211424 0 -2 0
1510 227 2 0.5564 3.083399515410589 2.0245105380684354 0.009343394034170779 4 5 0
2347 506 2 0.5564 14.023869719658865 0.9056896736835056 6.667848857788732 -4 -2 0
1073 82 1 -1.1128 6.600066723093503 6.28023817978066 0.17828601417451562 0 -2 0
4304 1159 1 -1.1128 10.109960881740772 0.5018765526458786 0.20410415149580238 4 2 0
1638 270 2 0.5564 7.940692440115857 2.714790020410208 0.3395052224951502 -3 2 0
2480 551 1 -1.1128 10.955516250065594 7.2759988745420925 0.8807345120232986 3 -2 0
3895 1022 2 0.5564 7.170356446611523 0.0176388724647989 1.2343586328297735 9 2 0
2930 701 1 -1.1128 7.425925165781186 4.756004864485563 2.2046993582703713 -3 2 0
2932 701 2 0.5564 6.989931860483943 5.351173209198719 1.5948486025972592 -3 2 0
2931 701 2 0.5564 8.041349256669413 5.311326741576048 2.6833476992319896 -3 2 0
3785 986 1 -1.1128 6.317519614844314 2.2691202893923146 3.341803110108313 4 0 0
3717 963 2 0.5564 12.671057861263922 6.548763790202958 0.6759818056127227 7 -3 0
3045 739 2 0.5564 12.286171807449158 0.41002957655404976 3.108375421096046 3 2 0
1639 270 2 0.5564 8.709638876437047 3.7330806706299287 1.1541808807034668 -3 2 0
1962 378 2 0.5564 6.614589253798485 0.255796376546564 4.152521184954816 1 -2 0
3787 986 2 0.5564 6.69033120566883 3.0892578141712947 3.0183539663169148 4 0 0
2798 657 1 -1.1128 12.117042668350315 3.6904565706085357 2.2921560225246917 -1 2 0
3539 904 1 -1.1128 13.490789198151457 1.6817091082832294 3.6706057754670005 -5 -1 0
3116 763 1 -1.1128 8.303601873934316 5.329611014373329 5.899304346543981 0 1 0
3186 786 2 0.5564 11.451893052951423 4.257540125598211 3.8711448902027694 3 5 0
3540 904 2 0.5564 13.832574933750994 1.543203299415831 4.553914041094255 -5 -1 0
1961 378 1 -1.1128 6.663221961933239 -0.41149093954792676 4.837059244109223 1 -2 0
3185 786 1 -1.1128 11.02713717255893 4.691648550699602 4.610991440290038 3 5 0
3187 786 2 0.5564 10.236329107120936 4.176271640319563 4.7698675014992205 3 5 0
3046 739 2 0.5564 10.995939740870528 0.3680258642436758 3.8992185829912125 3 2 0
3044 739 1 -1.1128 11.522389597844825 -0.14014758074105632 3.282092590727644 3 2 0
4069 1080 2 0.5564 12.213095652918481 4.168200894807384 5.8513816213493985 -3 5 0
4067 1080 1 -1.1128 12.877151396196496 4.116840787946367 6.538857683491375 -3 5 0
1563 245 2 0.5564 10.052673319291625 5.6786865869364895 3.656565015145599 0 3 0
3117 763 2 0.5564 8.849638850190303 5.821018146587491 6.512977872474269 0 1 0
3118 763 2 0.5564 8.158115806121558 4.486873465279717 6.3292640718022275 0 1 0
2800 657 2 0.5564 12.483409818110692 2.8514101344686966 2.571457498428681 -1 2 0
3006 726 2 0.5564 10.895244196905201 1.2199884838015704 5.946689098723896 -4 1 0
3005 726 1 -1.1128 10.023599657368534 1.2138871168472876 5.551176098646561 -4 1 0
3007 726 2 0.5564 9.698342979147935 0.32617676698078557 5.700878147265995 -4 1 0
4197 1123 2 0.5564 8.800509374135192 2.2426089991117975 6.599299769447073 1 5 0
4196 1123 1 -1.1128 8.204354725919398 2.8203889408394054 7.075749771755844 1 5 0
4401 1191 2 0.5564 6.349094989973967 5.598298013660101 6.522459610123897 -2 1 0
4305 1159 2 0.5564 9.84252269927719 1.4208915461209874 0.19299702135764557 4 2 0
2750 641 1 -1.1128 12.300322159645452 0.3166914065172937 6.793753472578068 -1 3 0
3718 963 2 0.5564 13.917856613180325 5.694915612616161 0.7672595451939777 7 -3 0
2752 641 2 0.5564 12.045787461136989 -0.5024921378940799 6.369038571776284 -1 3 0
2482 551 2 0.5564 10.487636007869702 6.76053286489655 0.22376058824354308 3 -2 0
1562 245 1 -1.1128 9.545434536702679 6.337857145202596 3.1828191232940717 0 3 0
2799 657 2 0.5564 12.73124519056328 4.012868882863965 1.6325821632917994 -1 2 0
1564 245 2 0.5564 9.173482290197096 6.892800868069635 3.8683258259693387 0 3 0
1637 270 1 -1.1128 8.827798335036656 3.0254459387589128 0.520523907945407 -3 2 0
4068 1080 2 0.5564 13.509488849090085 4.799077649770788 6.313175997453362 -3 5 0
3716 963 1 -1.1128 13.547218292438288 6.527185295900796 1.0608330713517073 7 -3 0
2481 551 2 0.5564 10.514200395552042 7.071491707142151 1.705142924199843 3 -2 0
4306 1159 2 0.5564 9.940985949962352 0.21358712838894403 1.1010811467434023 4 2 0
3063 745 2 0.5564 14.112090009618118 6.888685785201643 2.8465297308948507 2 -2 0
2608 593 2 0.5564 6.84774219160479 7.620987081607632 1.6811718168607397 0 -3 0
1952 375 1 -1.1128 6.453229784489091 1.8137945593441545 0.14097654436261237 -2 -5 0
4398 1190 2 0.5564 3.9526908812093096 -0.22744294080705066 9.400822349371383 -2 -5 0
3161 778 1 -1.1128 1.8257467101452551 7.088738459311739 11.017186428302608 0 0 0
2742 638 2 0.5564 4.656475890961198 7.557683437036028 9.451594631436441 0 1 0
3766 979 2 0.5564 1.745991975226901 -0.09635186488726447 9.881226408974769 -2 -1 0
1972 381 2 0.5564 2.5075861256557817 7.359354705987559 9.336389179995617 0 0 0
3764 979 1 -1.1128 2.4332768905879423 0.21287314225457 10.471356860908577 -2 -1 0
3022 731 2 0.5564 -1.2748771144633606 1.3222082515523774 8.545571391274974 -1 3 0
1166 113 1 -1.1128 -1.3851433102176434 1.8959791576032956 14.107780991828218 -4 4 0
2428 533 2 0.5564 -0.9450754408687502 7.014648357618966 14.334298163794253 1 -1 0
2889 687 2 0.5564 3.9959374968557344 1.2025996337726839 12.869996671188972 5 1 0
2888 687 1 -1.1128 4.261347779632824 0.3194308767980109 12.613472299651212 5 1 0
901 24 2 0.5564 3.78605764779549 5.1162065751368235 14.066988256305553 -2 -1 0
899 24 1 -1.1128 4.066494175159314 4.854625083360269 14.94400723770174 -2 -1 0
3765 979 2 0.5564 2.2641862531995485 1.1502184147894974 10.566379888576444 -2 -1 0
3243 805 2 0.5564 6.028199250616372 2.379621725719032 8.94798272791461 0 -4 0
883 18 2 0.5564 2.9930153509068784 2.9467060281699986 13.954839240133566 0 4 0
3955 1042 2 0.5564 -0.5484401914584242 1.6125444476362447 12.252814752399745 -1 -2 0
3162 778 2 0.5564 0.9413423968790969 6.973276909853057 10.669715648001198 0 0 0
4062 1078 2 0.5564 1.823907290978909 3.2938290279430986 9.277657027781729 0 -1 0
4061 1078 1 -1.1128 1.9486804013944106 3.023126265184891 10.18726361787134 0 -1 0
881 18 1 -1.1128 2.586539533455261 2.481381856862658 13.223756150157516 0 4 0
3953 1042 1 -1.1128 -0.1023754374051191 1.4948052015330953 11.414128231150546 -1 -2 0
3954 1042 2 0.5564 0.6246969275798983 2.116858495524189 11.439603664366121 -1 -2 0
882 18 2 0.5564 2.0629060102398022 1.7951608356369768 13.63745248052999 0 4 0
4063 1078 2 0.5564 2.579315393769902 3.650843157791334 10.540112990293117 0 -1 0
2890 687 2 0.5564 3.7670132019050846 0.14329130716112895 11.812946587389801 5 1 0
2356 509 2 0.5564 -1.3265656173421616 6.910536769185569 10.633974852214772 0 1 0
3947 1040 1 -1.1128 4.652547721351298 3.5259052259633044 8.449770998426755 -3 -2 0
3949 1040 2 0.5564 5.0280246607587955 4.164945346848504 7.844067943582208 -3 -2 0
2355 509 2 0.5564 -1.0655106588120027 5.994444755333025 9.457319697887357 0 1 0
3948 1040 2 0.5564 4.496900972632147 4.020509192046289 9.254365597752077 -3 -2 0
3085 752 2 0.5564 3.153498163093025 5.643444140447637 11.103955076716463 1 0 0
2426 533 1 -1.1128 -0.9672480418410802 6.060483914352739 14.407172030348697 1 -1 0
2835 669 2 0.5564 0.18069801516372974 1.2998106520450843 14.214569692393429 2 3 0
2354 509 1 -1.1128 -0.6244912852466434 6.5779677252988815 10.074759603403123 0 1 0
2741 638 1 -1.1128 5.540368479689076 7.4475931354934115 9.80208656151369 0 1 0
3084 752 2 0.5564 4.539508186228664 5.49378698597526 11.694273772436699 1 0 0
3083 752 1 -1.1128 3.8043198829771274 4.98627598726824 11.35052155439119 1 0 0
3021 731 2 0.5564 -1.2770145271530244 1.7318175200652004 10.003003408591526 -1 3 0
843 5 2 0.5564 5.910749789550889 0.21425329602883633 13.74883839440453 -2 0 0
3826 999 2 0.5564 0.7543124873883212 -0.5254084207209241 7.598335118418963 4 1 0
3058 743 2 0.5564 6.1061010132422355 6.712257354739797 11.270891007742385 -1 1 0
3056 743 1 -1.1128 6.132377355110397 6.1840363605022945 12.068717150584563 -1 1 0
4399 1190 2 0.5564 5.3571691458347654 0.260235054135455 9.115327067693334 -2 -5 0