LAMMPS data file via write_data, version 2 Aug 2023, timestep = 6500000, units = real

3832 atoms
4 atom types
2000 bonds
1 bond types
1000 angles
1 angle types
0 impropers
1 improper types

-1.8420299999999998 30.08661 xlo xhi
-0.709 33.323 ylo yhi
-150 150 zlo zhi

Masses

1 15.9994
2 1.00794
3 12.0107
4 12.0107

Pair Coeffs # lj/cut/tip4p/long

1 0.1852 3.1589
2 0 0
3 0.0859 3.3997
4 0.0859 3.3997

Bond Coeffs # harmonic

1 5000 0.9572

Angle Coeffs # harmonic

1 500 104.52

Atoms # full

1 1 3 0 0 0 -14.519096394668605 0 0 0
2 1 3 0 -1.22802 0.709 -14.519096394668605 0 0 0
3 1 3 0 -1.22802 2.127 -14.519096394668605 0 0 0
4 1 3 0 0 2.836 -14.519096394668605 0 0 0
5 1 3 0 2.45605 0 -14.519096394668605 0 0 0
6 1 3 0 1.22802 0.709 -14.519096394668605 0 0 0
7 1 3 0 1.22802 2.127 -14.519096394668605 0 0 0
8 1 3 0 2.45605 2.836 -14.519096394668605 0 0 0
9 1 3 0 4.9121 0 -14.519096394668605 0 0 0
10 1 3 0 3.68407 0.709 -14.519096394668605 0 0 0
11 1 3 0 3.68407 2.127 -14.519096394668605 0 0 0
12 1 3 0 4.9121 2.836 -14.519096394668605 0 0 0
14 1 3 0 6.14012 0.709 -14.519096394668605 0 0 0
15 1 3 0 6.14012 2.127 -14.519096394668605 0 0 0
53 1 3 0 0 4.254 -14.519096394668605 0 0 0
54 1 3 0 -1.22802 4.963 -14.519096394668605 0 0 0
55 1 3 0 -1.22802 6.381 -14.519096394668605 0 0 0
56 1 3 0 0 7.09 -14.519096394668605 0 0 0
57 1 3 0 2.45605 4.254 -14.519096394668605 0 0 0
58 1 3 0 1.22802 4.963 -14.519096394668605 0 0 0
59 1 3 0 1.22802 6.381 -14.519096394668605 0 0 0
60 1 3 0 2.45605 7.09 -14.519096394668605 0 0 0
61 1 3 0 4.9121 4.254 -14.519096394668605 0 0 0
62 1 3 0 3.68407 4.963 -14.519096394668605 0 0 0
63 1 3 0 3.68407 6.381 -14.519096394668605 0 0 0
64 1 3 0 4.9121 7.09 -14.519096394668605 0 0 0
66 1 3 0 6.14012 4.963 -14.519096394668605 0 0 0
67 1 3 0 6.14012 6.381 -14.519096394668605 0 0 0
3642 938 2 0.5564 1.7952968043808 1.4386490533943435 -10.974712147407773 -2 2 0
3643 938 2 0.5564 2.862979796309599 0.4740302433309466 -11.445311057658264 -2 2 0
3641 938 1 -1.1128 2.6915127525110383 1.1547671121489265 -10.7945949123262 -2 2 0
2909 694 1 -1.1128 4.8349826506203515 3.4097241462123145 -7.211516243805064 1 -2 0
2911 694 2 0.5564 5.2234758119746605 3.185375122909385 -6.365955573459972 1 -2 0
2910 694 2 0.5564 4.6211084919622145 4.339833000755353 -7.138142503890081 1 -2 0
1363 178 2 0.5564 0.9798200281854802 2.383018803815967 -8.853758187079057 1 2 0
1361 178 1 -1.1128 0.5294628951954289 3.0818990732357525 -8.379442137867605 1 2 0
2854 675 2 0.5564 1.831986102837984 4.730206627219587 -11.286488595220954 2 2 0
2741 638 1 -1.1128 0.09731951951651872 1.9949479943025805 -11.415298423886409 3 2 0
2853 675 2 0.5564 0.6509772524532189 4.403660435183103 -12.17557777732833 2 2 0
3636 936 2 0.5564 3.0276494791501007 0.35087332953235695 -9.26315857673624 3 1 0
2742 638 2 0.5564 -0.6623446648191192 2.558992933864101 -11.270400070903754 3 2 0
1362 178 2 0.5564 1.0785017919289643 3.8546287525763256 -8.512404942142002 1 2 0
2852 675 1 -1.1128 0.9773058838567006 5.061754813611878 -11.56185904825843 2 2 0
3635 936 1 -1.1128 2.9851426279915274 0.07410273171253991 -8.34783174904707 3 1 0
2303 492 1 -1.1128 3.3823845331414257 4.672402092099219 -10.718043784253721 0 -2 0
3637 936 2 0.5564 2.080039182239226 -0.21235632977566588 -8.22551590107096 3 1 0
3575 916 1 -1.1128 13.577281104296963 0.2574931690257844 -8.092037065910725 1 0 0
1268 147 1 -1.1128 12.944345779446836 6.513186315086516 -6.1089396319434925 0 -2 0
2941 704 2 0.5564 3.293660528634159 0.5812590556711975 -0.4317609160048914 5 -1 0
2305 492 2 0.5564 3.9440455894336606 3.897365687894025 -10.727429410466554 0 -2 0
2304 492 2 0.5564 3.1636242385454816 4.799080727958116 -9.794826284807929 0 -2 0
2743 638 2 0.5564 -0.27148388674589546 1.1759944017085497 -11.74625394604054 3 2 0
876 16 2 0.5564 11.538693252793662 0.73789171218739 -5.871380349259817 2 -1 0
3576 916 2 0.5564 13.239687433561748 1.0800482673035932 -7.737542722448358 1 0 0
2432 535 1 -1.1128 2.422546555723893 2.1613285911759674 -6.361720999175968 4 0 0
2433 535 2 0.5564 2.5613603663322304 1.5139809430706956 -7.053026569083629 4 0 0
2046 406 2 0.5564 0.8996421523836324 0.338558050615 -0.5200766393232703 1 0 0
965 46 1 -1.1128 -0.4431820201795187 -0.1923701141703525 -1.578709136264366 0 -1 0
3440 871 1 -1.1128 -1.2933260198986913 1.9786009898892434 -2.8558155285081286 -1 3 0
877 16 2 0.5564 10.028068215665037 0.7491710277938515 -5.772494797982608 2 -1 0
1683 285 2 0.5564 4.416303589317855 1.9927758784815064 -10.760192542656963 -2 -3 0
1682 285 1 -1.1128 5.2151669575793225 2.4913557262300494 -10.588517997974355 -2 -3 0
1684 285 2 0.5564 5.33291548668639 2.4368752203955006 -9.640151134224855 -2 -3 0
2250 474 2 0.5564 10.4772301441242 5.839166019202548 -11.602518587418594 -1 -3 0
3313 828 2 0.5564 6.712097057878494 1.5330459657102482 -11.383522906516935 -2 2 0
1027 66 2 0.5564 7.700951489904897 4.97302238489646 -10.357231984058108 -1 2 0
1411 194 2 0.5564 12.538891874883877 4.760470662745365 -8.95355095077169 0 0 0
2865 679 2 0.5564 9.716542089307111 7.100467477632477 -6.835458283694249 -2 -1 0
3312 828 2 0.5564 8.22169084422788 1.4233662564151455 -11.414753023302243 -2 2 0
982 51 2 0.5564 9.699502108083339 2.764726960213139 -9.503609788638316 1 1 0
980 51 1 -1.1128 9.58301519485027 2.4487365960625223 -10.399610567231992 1 1 0
2017 396 2 0.5564 12.613398823429938 1.4269462157461559 -11.006367445368966 2 1 0
2015 396 1 -1.1128 12.443082854003828 2.3600498110523906 -10.87775072951864 2 1 0
3583 918 2 0.5564 9.423849227189585 0.7143530770726013 -1.2021425943398003 -2 6 0
13 1 3 0 7.36814 0 -14.519096394668605 0 0 0
16 1 3 0 7.36814 2.836 -14.519096394668605 0 0 0
17 1 3 0 9.82419 0 -14.519096394668605 0 0 0
18 1 3 0 8.59617 0.709 -14.519096394668605 0 0 0
19 1 3 0 8.59617 2.127 -14.519096394668605 0 0 0
20 1 3 0 9.82419 2.836 -14.519096394668605 0 0 0
21 1 3 0 12.2802 0 -14.519096394668605 0 0 0
22 1 3 0 11.0522 0.709 -14.519096394668605 0 0 0
23 1 3 0 11.0522 2.127 -14.519096394668605 0 0 0
24 1 3 0 12.2802 2.836 -14.519096394668605 0 0 0
26 1 3 0 13.5083 0.709 -14.519096394668605 0 0 0
27 1 3 0 13.5083 2.127 -14.519096394668605 0 0 0
65 1 3 0 7.36814 4.254 -14.519096394668605 0 0 0
68 1 3 0 7.36814 7.09 -14.519096394668605 0 0 0
69 1 3 0 9.82419 4.254 -14.519096394668605 0 0 0
70 1 3 0 8.59617 4.963 -14.519096394668605 0 0 0
71 1 3 0 8.59617 6.381 -14.519096394668605 0 0 0
72 1 3 0 9.82419 7.09 -14.519096394668605 0 0 0
73 1 3 0 12.2802 4.254 -14.519096394668605 0 0 0
74 1 3 0 11.0522 4.963 -14.519096394668605 0 0 0
75 1 3 0 11.0522 6.381 -14.519096394668605 0 0 0
76 1 3 0 12.2802 7.09 -14.519096394668605 0 0 0
78 1 3 0 13.5083 4.963 -14.519096394668605 0 0 0
79 1 3 0 13.5083 6.381 -14.519096394668605 0 0 0
1025 66 1 -1.1128 7.053918420468037 4.852459827830989 -9.66221771089766 -1 2 0
3441 871 2 0.5564 -0.6743595126377558 2.3537789595758776 -3.482198417286563 -1 3 0
2970 714 2 0.5564 8.863403811656344 4.124186623824876 -0.9266472777075259 -2 -1 0
981 51 2 0.5564 10.472785986171134 2.296354695657984 -10.717922709610747 1 1 0
2843 672 1 -1.1128 8.815619465162932 -0.464476506324564 -4.698841857976837 -2 -3 0
3477 883 2 0.5564 0.48559728828283644 7.223591173268043 -0.6834671403315395 2 1 0
1026 66 2 0.5564 6.412747056644309 4.246552783854451 -10.03371089842769 -1 2 0
2408 527 1 -1.1128 9.93129519419554 3.572190643398363 -7.8657532364615745 -1 -2 0
2409 527 2 0.5564 9.144938374173341 4.004740076412892 -7.532922216800164 -1 -2 0
2747 640 1 -1.1128 12.456948721389272 5.776718767013083 -10.992370829786557 -2 -3 0
2662 611 2 0.5564 4.289511837566823 6.4626374923854355 -10.812006030765001 -1 -1 0
1410 194 2 0.5564 11.512941945209727 4.357634893221999 -7.915743214264761 0 0 0
3392 855 1 -1.1128 13.055311929926948 -0.30579371178502124 -10.634165387210674 -1 3 0
1100 91 1 -1.1128 -0.91871956803037 5.745457999953168 -9.226005784914635 -1 0 0
1409 194 1 -1.1128 12.437305148395188 4.58408254144849 -8.018243980034462 0 0 0
2249 474 1 -1.1128 9.62649787679555 5.515054043575638 -11.306816109764625 -1 -3 0
2251 474 2 0.5564 9.729946930610076 4.563999212526952 -11.274779942729543 -1 -3 0
1727 300 1 -1.1128 8.303243404842092 5.74179388038793 -6.500400626205758 -2 3 0
1729 300 2 0.5564 7.394119259407153 5.903422704042158 -6.752595131439725 -2 3 0
2797 656 2 0.5564 5.710376706039087 4.903303449104 -1.4952842670054571 2 1 0
1528 233 2 0.5564 7.037435143743901 0.13213420857830038 -5.198776704574929 2 1 0
2410 527 2 0.5564 10.139341944244698 2.9112202054938723 -7.20540049532467 -1 -2 0
2016 396 2 0.5564 13.310492909828291 2.749225195728038 -10.766527658064646 2 1 0
1269 147 2 0.5564 13.009196614556968 5.861903451250164 -6.807405034313506 0 -2 0
1526 233 1 -1.1128 6.226563514110468 0.621598344092992 -5.337138483574578 2 1 0
3735 969 2 0.5564 0.43880577933158305 7.442262628697015 -3.48836283841993 3 1 0
1101 91 2 0.5564 -1.7088399015045648 5.489545145588861 -9.701873347903172 -1 0 0
3812 995 1 -1.1128 0.4297812370888841 -0.6525001018970725 -7.873828665759679 0 3 0
858 10 2 0.5564 9.795164374402122 5.614804995908266 -2.842702116484368 1 1 0
2730 634 2 0.5564 2.380889477025124 4.810284402860894 -4.78679658121965 1 3 0
2729 634 1 -1.1128 1.7147197798552787 5.19216070327902 -5.35830575928664 1 3 0
2731 634 2 0.5564 0.9592231542942847 4.6114361879057935 -5.267653544494913 1 3 0
2660 611 1 -1.1128 4.574699218449502 7.330967388472659 -10.527569611264314 -1 -1 0
1357 176 2 0.5564 6.504990659691323 2.398081900453515 -4.887821133922621 -2 2 0
2939 704 1 -1.1128 4.195421165505839 0.4008026967575716 -0.16625417363321562 5 -1 0
3504 892 2 0.5564 11.06527268686983 2.066690063243998 -0.381220431501033 0 -1 0
1102 91 2 0.5564 -0.1982238644003018 5.488783744856472 -9.801537662765451 -1 0 0
2628 600 2 0.5564 -0.9511503806125807 3.1746774854465776 -5.344253821195081 4 2 0
2627 600 1 -1.1128 -0.0533285362196952 3.0048333572957966 -5.059118591697451 4 2 0
3478 883 2 0.5564 0.06487653885266312 6.378639935986262 -1.8670829289887358 2 1 0
3736 969 2 0.5564 0.8196667271392253 6.2331438189518495 -4.31593028854869 3 1 0
1309 160 2 0.5564 4.0900489536049145 1.009767438223506 -3.326061589450951 -2 1 0
1035 69 2 0.5564 3.678180902059271 6.5896085216717575 -0.3627194694665797 3 3 0
3337 836 2 0.5564 4.105298903168215 4.755094022059553 -3.009183559470661 1 2 0
3042 738 2 0.5564 -1.5552697316117816 6.330687721591561 -3.292952335705364 1 1 0
3451 874 2 0.5564 2.49269041007923 1.5637829908763043 -4.654853314300106 1 -1 0
3727 966 2 0.5564 4.669802703207907 6.8603233264752825 -4.512689605168964 0 -1 0
3336 836 2 0.5564 4.709339568190335 4.167894595316342 -4.26704901589265 1 2 0
2838 670 2 0.5564 0.8445421640212599 3.4870502353831934 -1.825596647063517 1 0 0
2839 670 2 0.5564 1.586507904939682 2.3994851300787263 -1.0782146749800958 1 0 0
1990 387 2 0.5564 2.8683082090078664 4.220458610089853 -1.1428674484848844 1 0 0
1989 387 2 0.5564 4.145088873023281 4.332773470273219 -0.33719518847504354 1 0 0
2846 673 1 -1.1128 8.083924394242997 6.093178085737766 -3.4688619396104645 -8 0 0
3476 883 1 -1.1128 0.2141133129094373 6.337364505123636 -0.922489160799938 2 1 0
2434 535 2 0.5564 3.1992083345351796 2.7197409523930522 -6.396379048835653 4 0 0
1988 387 1 -1.1128 3.694228124580464 4.702060025482181 -1.096525650655064 1 0 0
857 10 1 -1.1128 10.678505001894827 5.526038583759051 -2.484844421454552 1 1 0
2837 670 1 -1.1128 1.7220422720180049 3.1356397917838366 -1.6748196871597405 1 0 0
3450 874 2 0.5564 2.162611889894531 2.0927006820003515 -3.2752910099185244 1 -1 0
3335 836 1 -1.1128 4.048595471776801 4.790659147866051 -3.9640411407780745 1 2 0
3449 874 1 -1.1128 2.4238431722270963 1.296676923489517 -3.738256471122183 1 -1 0
2847 673 2 0.5564 8.133102285772969 6.985836675593106 -3.126850130925244 -8 0 0
2629 600 2 0.5564 0.4103739031382916 2.759441609784202 -5.859740538159759 4 2 0
859 10 2 0.5564 11.099983766680914 4.8742498653654485 -3.044986335282685 1 1 0
1274 149 1 -1.1128 13.459645348797746 -0.601488540313442 -0.9421724728404908 1 3 0
3734 969 1 -1.1128 0.2351287938520846 6.515243711769443 -3.6123922419860524 3 1 0
1307 160 1 -1.1128 4.903830148471797 1.0058947861085026 -2.8220996701928778 -2 1 0
2946 706 2 0.5564 2.1384131008213925 5.201508405784529 -7.2414989941845835 2 -1 0
2844 672 2 0.5564 9.083432422823558 -0.5973079385927679 -3.78952156249493 -2 -3 0
3725 966 1 -1.1128 4.977577768204366 7.7666636196012675 -4.52001989533572 0 -1 0
2926 699 2 0.5564 5.389890558731126 -0.6817266554600897 -2.913345690382727 4 -2 0
2749 640 2 0.5564 13.024318964990647 5.007264481362925 -11.039935192273182 -2 -3 0
1356 176 2 0.5564 6.743933207382472 3.448065962040359 -3.8237084613714503 -2 2 0
1034 69 1 -1.1128 3.845780165536498 7.47729728009418 -0.046252106236265 3 3 0
2470 547 2 0.5564 0.603623462983352 0.586317841964659 -4.411665207292951 -1 -2 0
1308 160 2 0.5564 4.621605663594795 1.0744863983309876 -1.9100270469580787 -2 1 0
2469 547 2 0.5564 0.4553347804509511 -0.07528137510676346 -5.765249658217975 -1 -2 0
2468 547 1 -1.1128 0.13535773437256182 -0.11535589967205993 -4.864006355078891 -1 -2 0
3311 828 1 -1.1128 7.422805132207528 0.9097742201618892 -11.534047405931183 -2 2 0
1277 150 1 -1.1128 13.322178762930353 2.6527145213017884 -6.417650480542958 -1 3 0
1735 302 2 0.5564 5.171244452055566 7.077635491348584 -8.025763166976684 3 2 0
1971 381 2 0.5564 -0.47739644618962773 7.212907297570377 -11.736426851135189 -1 1 0
2796 656 2 0.5564 6.910137268523472 4.03950079607807 -1.169241029388371 2 1 0
2848 673 2 0.5564 7.55404974583769 5.619403322223551 -2.827766695631108 -8 0 0
2947 706 2 0.5564 1.9354481103113306 6.0611312665695305 -8.471030014517957 2 -1 0
3394 855 2 0.5564 13.105015639397715 0.03265029061681432 -9.740176256071276 -1 3 0
3581 918 1 -1.1128 9.20518154004527 0.039438841470131686 -1.844719764043068 -2 6 0
3442 871 2 0.5564 -1.7471994626658125 2.7351225916958715 -2.4844556383759016 -1 3 0
1276 149 2 0.5564 13.963745727255969 -0.686083811128853 -0.1328787906434647 1 3 0
1675 282 2 0.5564 13.690911495011305 3.486375956692324 -3.5898423879606955 -1 0 0
3236 803 1 -1.1128 12.346299793325276 4.365530055253767 -4.4079277869688935 -1 0 0
1728 300 2 0.5564 8.253197470383286 5.468119358238841 -5.584524026273501 -2 3 0
967 46 2 0.5564 -0.8169380266942575 0.5019617301417887 -2.121338914707195 0 -1 0
1355 176 1 -1.1128 6.510670767064231 3.344743881923565 -4.74628364260902 -2 2 0
1270 147 2 0.5564 12.132302984798669 6.984570396963584 -6.294992053657661 0 -2 0
2748 640 2 0.5564 13.023950655245361 6.508411472299728 -11.236023852426241 -2 -3 0
3582 918 2 0.5564 9.885007656470789 -0.6254481559926547 -1.735209403360595 -2 6 0
875 16 1 -1.1128 10.752311575001317 1.0341339742017528 -6.329721347421709 2 -1 0
1659 277 2 0.5564 6.780750809308332 0.1671854822636638 -6.987916891249448 -3 0 0
2969 714 1 -1.1128 8.386084030524588 3.9535331144210364 -0.11469187804767669 -2 -1 0
3238 803 2 0.5564 12.659748463433719 5.181545189976171 -4.797932993318746 -1 0 0
2795 656 1 -1.1128 6.397128544629649 4.376331611776955 -1.9038177519784145 2 1 0
1527 233 2 0.5564 5.80169777982458 0.6295200000088791 -4.479433082970819 2 1 0
3237 803 2 0.5564 12.380035908909937 3.729542553967122 -5.122502047408965 -1 0 0
1279 150 2 0.5564 12.927016467093548 3.2862447303034865 -7.01658012136504 -1 3 0
1658 277 1 -1.1128 6.747586662077034 -0.10877496109951224 -7.903875283555825 -3 0 0
2945 706 1 -1.1128 2.215583175490878 5.188300508363986 -8.195491539433505 2 -1 0
2281 484 2 0.5564 9.565931267959595 -0.3339225732849862 -11.38213849783722 -1 1 0
3694 955 2 0.5564 13.648047593981104 -0.09531050802599321 -3.8802417574865187 0 0 0
1734 302 2 0.5564 6.143388944355796 5.973793431415017 -8.384039339950611 3 2 0
1783 318 2 0.5564 9.449406499245287 7.153871227390613 -10.338161288127754 4 -1 0
1733 302 1 -1.1128 5.59099111660731 6.293981066020965 -7.670896363245724 3 2 0
2608 593 2 0.5564 12.967884777462036 1.3643070055413784 -1.4711827602849812 0 1 0
2607 593 2 0.5564 13.03613026707846 2.8284250326308813 -1.8501228212699432 0 1 0
2864 679 1 -1.1128 10.48668079096495 7.63125807725156 -7.038880138849342 -2 -1 0
3148 773 2 0.5564 -1.2202856123344203 2.9610065121627906 -8.38062610136186 2 2 0
2606 593 1 -1.1128 12.711799629135827 2.236525486678513 -1.1713749072473543 0 1 0
1660 277 2 0.5564 6.787132315648715 0.70760762409851 -8.402059211680987 -3 0 0
2045 406 1 -1.1128 1.5373996025477454 0.9439418603102897 -0.14190753438634354 1 0 0
3330 834 2 0.5564 0.24316205769061927 7.196825927598156 -9.202255692634115 1 -5 0
3329 834 1 -1.1128 1.1162464198048543 7.565324915783091 -9.067477288662559 1 -5 0
2292 488 2 0.5564 10.398778026590044 -0.5372713976557523 -7.687547670053625 -2 1 0
3813 995 2 0.5564 -0.14992020223135183 -0.13956834474972024 -8.43692660905559 0 3 0
1368 180 2 0.5564 13.81918632325877 7.716507756427749 -7.791987917357258 1 2 0
1782 318 2 0.5564 9.598168508544092 7.591342035100511 -8.896501954124128 4 -1 0
2940 704 2 0.5564 4.245517867741112 -0.5539711488881937 -0.12012777080450962 5 -1 0
2235 469 2 0.5564 1.1058176787890666 2.4439140720335835 7.729663477540359 4 2 0
909 27 2 0.5564 2.703970647129937 3.885065967298849 3.432027896000449 1 0 0
2234 469 1 -1.1128 1.3064958301131864 3.367572624513528 7.88070947737204 4 2 0
2701 624 2 0.5564 5.688139522483551 4.295913182133107 5.72092198265393 -1 4 0
3520 897 2 0.5564 13.032018732589195 4.867151521923163 1.8954978398307314 0 3 0
2502 558 2 0.5564 5.667096502407465 2.813078552943932 1.408506901864698 -1 -2 0
2927 700 1 -1.1128 -1.1486519403166606 6.6410953223756275 2.5668865097096845 1 2 0
2027 400 1 -1.1128 2.993539540002735 4.661840018345197 5.035243344577658 5 -2 0
2700 624 2 0.5564 6.0665457677060335 5.4113281907944035 4.769844917617953 -1 4 0
3169 780 2 0.5564 5.852340560396612 6.830939965828589 8.501305490138835 1 -1 0
2029 400 2 0.5564 3.8918109864771173 4.66404208390237 4.704579673642862 5 -2 0
2699 624 1 -1.1128 5.829527940747947 4.4842307100192835 4.793140948800838 -1 4 0
3671 948 1 -1.1128 6.452046691715992 7.718340151250543 10.056896481656464 -2 1 0
2028 400 2 0.5564 3.0606980826948043 4.27868473120787 5.909836914253148 5 -2 0
2004 392 2 0.5564 1.3750309506121847 4.855246419448282 1.635405099819065 4 1 0
432 2 4 0 7.36814 2.836 16.74620659931785 0 0 0
1780 317 2 0.5564 -1.7933659564029973 3.951390610438594 7.300919089864227 3 0 0
2456 543 1 -1.1128 1.3848072424403561 0.9078984682167645 6.78595957726035 2 -5 0
2903 692 1 -1.1128 1.284153042637121 1.1535661729332358 2.4520117084611495 5 0 0
3168 780 2 0.5564 6.1329544421803375 6.274702336727256 7.1215422600820935 1 -1 0
1844 339 1 -1.1128 -0.9197190782896076 0.8548907080532236 13.449440393822321 3 -3 0
3431 868 1 -1.1128 -0.04408472035838861 4.95493081014469 4.61658097216549 0 0 0
3433 868 2 0.5564 0.9066969600437369 4.924472744611853 4.722970797931396 0 0 0
1459 210 2 0.5564 -0.5884871894926967 0.4605811618054429 2.1531697063564397 4 -3 0
1185 119 2 0.5564 7.751604458871612 2.6779795730059286 2.8868403109463965 1 1 0
2904 692 2 0.5564 1.3087746072276745 0.4894788311652223 3.14093577829749 5 0 0
1186 119 2 0.5564 6.407615039016717 3.1080098544612147 3.435166068708822 1 1 0
1184 119 1 -1.1128 6.809967413847196 2.564476908839937 2.757732253871487 1 1 0
2867 680 1 -1.1128 4.8347315127892525 2.970922817690913 6.963231398104541 -1 -2 0
2503 558 2 0.5564 4.556687864781067 2.2675322284934625 0.5360017435757652 -1 -2 0
908 27 1 -1.1128 2.6597219614428074 3.5933552338423227 2.5214351726408273 1 0 0
2956 709 2 0.5564 -0.8037423278174756 6.155858149639867 5.653531215706911 -1 3 0
2954 709 1 -1.1128 -1.3475847309083566 6.611388768903774 6.296153689682394 -1 3 0
1845 339 2 0.5564 0.016093435671731795 1.0309721815495707 13.546850192474713 3 -3 0
2905 692 2 0.5564 1.8329030012045555 1.864154298633684 2.783929202716928 5 0 0
3511 894 2 0.5564 8.681162312106549 7.072200071085315 13.068569222606246 6 4 0
434 2 4 0 8.59617 0.709 16.74620659931785 0 0 0
2869 680 2 0.5564 5.337687371995912 3.140755445984806 7.759738615392519 -1 -2 0
2868 680 2 0.5564 5.2434470304431295 2.193609859562627 6.58248531341875 -1 -2 0
910 27 2 0.5564 3.5137060091609755 3.1940636669107123 2.355580948995363 1 0 0
3097 756 2 0.5564 -1.4429342461343673 2.5818980972896814 9.584358865098356 1 -2 0
2003 392 1 -1.1128 0.44587129633720873 4.937734260481834 1.4207178226143853 4 1 0
3432 868 2 0.5564 -0.18269573205433598 5.52302840254897 3.858766086916022 0 0 0
1778 317 1 -1.1128 -1.3224054173447475 4.4962133376836295 7.931469466340484 3 0 0
3212 795 1 -1.1128 12.580573654660371 0.4693616518273029 10.229228422258311 3 1 0
1846 339 2 0.5564 -1.2316414972884544 0.7135793045206474 14.34329058667179 3 -3 0
1036 69 2 0.5564 4.6578743478136655 7.404009893490736 0.455109819937202 3 3 0
2458 543 2 0.5564 1.500121409503516 0.47931494753425263 5.937873302604779 2 -5 0
1425 199 2 0.5564 10.20458033175951 7.678916675450796 9.83278224697885 -2 -2 0
2457 543 2 0.5564 0.43719398272373167 0.9232566999636939 6.92021277996095 2 -5 0
495 2 4 0 13.5083 6.381 16.74620659931785 0 0 0
2955 709 2 0.5564 -1.0883245772825103 7.5298207456509525 6.221988909767475 -1 3 0
1359 177 2 0.5564 1.3567917280011121 -0.35454688173253823 12.180085971667046 1 0 0
2047 406 2 0.5564 1.4087399083455776 0.8683077232150918 0.8035903596145112 1 0 0
2751 641 2 0.5564 6.042299810500098 0.9918760151091103 3.331379128674436 -2 1 0
2196 456 2 0.5564 11.521024141469109 2.0410575040990766 7.3402842335332315 -3 3 0
2574 582 2 0.5564 6.894375948667794 0.618104707320559 12.19307993872892 6 1 0
1211 128 1 -1.1128 7.353976365426163 6.490263731657767 5.881040948292741 0 1 0
893 22 1 -1.1128 -1.1837049655335807 0.005618368839719529 7.011466620246793 1 -3 0
3518 897 1 -1.1128 13.820492944460593 5.241942349219065 2.28802129915399 0 3 0
2197 456 2 0.5564 11.989792496797483 1.6273508232808969 8.719052230522214 -3 3 0
2934 702 2 0.5564 13.004031988304394 7.2269826790857055 4.487974560423588 2 -2 0
2551 574 2 0.5564 3.849402798026921 7.360983767231081 3.252721732788272 -2 3 0
3605 926 1 -1.1128 8.386464305635586 6.216963694298807 3.214476966329964 2 -1 0
1413 195 2 0.5564 9.990444996116464 3.933977816053866 2.552947518560726 6 0 0
1300 157 2 0.5564 8.566130346642375 3.4830863762586164 6.862362540910071 -4 5 0
3619 930 2 0.5564 6.294350741799216 0.3299482344359505 5.482076868104187 -3 -2 0
3606 926 2 0.5564 8.127596554726887 6.397685275863627 4.118113594653246 2 -1 0
1414 195 2 0.5564 9.777555588963773 2.5976829570934457 3.2318367878259404 6 0 0
1299 157 2 0.5564 7.943835280793639 2.110229336427955 6.721267422567291 -4 5 0
1298 157 1 -1.1128 8.688429481068406 2.6372338999144502 6.431306499229052 -4 5 0
439 2 4 0 11.0522 2.127 16.74620659931785 0 0 0
1233 135 2 0.5564 11.344377772330105 3.4901305723573057 5.243601511169604 0 -2 0
1232 135 1 -1.1128 11.245157638804848 2.577147237320272 5.513506205592963 0 -2 0
921 31 2 0.5564 9.639689775510435 0.334549789734034 4.269534897274114 -2 3 0
3096 756 2 0.5564 -1.2414508763284984 2.7271019488881576 11.077748897074642 1 -2 0
1234 135 2 0.5564 10.333500953499025 2.5084344387145747 5.7970413034766795 0 -2 0
922 31 2 0.5564 9.88869958241984 -0.12238838596407645 2.8478816154699906 -2 3 0
920 31 1 -1.1128 9.987037041775062 0.632095860065354 3.4286730246253647 -2 3 0
2495 556 1 -1.1128 13.061057122761161 6.769803536652279 6.22759590703182 -3 2 0
2497 556 2 0.5564 12.25125947221529 6.43436745357796 6.61222641971568 -3 2 0
2561 578 1 -1.1128 1.8033788405569386 1.0839677875056506 13.299967609503641 -2 0 0
2219 464 1 -1.1128 6.452210307641836 7.039165615906247 1.3179474228410777 1 0 0
1738 303 2 0.5564 12.08649705320053 -0.6855708631152543 5.779126046723508 -2 4 0
2221 464 2 0.5564 6.866217741546721 6.323357725416568 1.800078294602413 1 0 0
1412 195 1 -1.1128 9.345470128930495 3.4326297128237453 3.0518390843319105 6 0 0
3509 894 1 -1.1128 9.571185946175406 6.828118902245059 13.322564901931678 6 4 0
3607 926 2 0.5564 8.6382732687233 5.293481620716264 3.2170931848960866 2 -1 0
1212 128 2 0.5564 7.830590873264271 5.997150070772222 6.5488092697265605 0 1 0
2501 558 1 -1.1128 4.879167029785509 3.076560255291735 0.9331319290880329 -1 -2 0
437 2 4 0 12.2802 0 16.74620659931785 0 0 0
2855 676 1 -1.1128 8.151211091298542 4.893551345549107 8.013966412909417 -4 -4 0
2005 392 2 0.5564 0.43436492359998985 5.368712701145171 0.5661054911325726 4 1 0
2052 408 2 0.5564 6.430527821646118 6.91331441957258 13.345024218696118 0 0 0
2195 456 1 -1.1128 11.266335337358443 2.057132526004588 8.26283949638522 -3 3 0
3673 948 2 0.5564 6.834968711309933 7.631794030065867 10.929885065432396 -2 1 0
2935 702 2 0.5564 12.778806681792268 6.859823999111869 3.036642973985149 2 -2 0
2241 471 2 0.5564 5.505867214261286 -0.18459898737290317 13.748530062412625 -3 0 0
3618 930 2 0.5564 6.161079197107234 -0.11479059398091326 6.92302898724422 -3 -2 0
494 2 4 0 13.5083 4.963 16.74620659931785 0 0 0
435 2 4 0 8.59617 2.127 16.74620659931785 0 0 0
3617 930 1 -1.1128 6.466961185098545 0.6119666206871953 6.380356394281436 -3 -2 0
3167 780 1 -1.1128 5.498450954566436 6.239199214860091 7.837348215285632 1 -1 0
866 13 1 -1.1128 11.244567742020498 4.7092323997442564 1.5646788800497478 0 -1 0
2573 582 1 -1.1128 7.2290985910815175 0.6504019205998626 13.08926859664547 6 1 0
2750 641 1 -1.1128 5.828380178740049 0.11703955418410183 3.65562437851996 -2 1 0
2236 469 2 0.5564 0.4534909114463938 3.7787262342392447 8.020597987605575 4 2 0
1575 249 2 0.5564 13.48603507310582 3.6705068619214862 14.027081196453581 4 0 0
2592 588 2 0.5564 -1.4452316151917746 4.3280204448353805 12.897755529656449 -3 -6 0
2593 588 2 0.5564 -1.0923250002942584 5.515181442975331 12.027125251659363 -3 -6 0
1243 138 2 0.5564 2.982056053396333 1.8351044574747868 9.857825512741526 3 0 0
2591 588 1 -1.1128 -0.8994173373892506 5.1140090938363345 12.874521243821942 -3 -6 0
491 2 4 0 11.0522 6.381 16.74620659931785 0 0 0
1242 138 2 0.5564 3.620480075627811 1.881945266499209 8.485922845980653 3 0 0
3383 852 1 -1.1128 -1.5161126994795924 2.7685768847922425 1.2055700571036578 0 -3 0
2562 578 2 0.5564 2.708571577801226 1.0762172594292307 13.611091289676587 -2 0 0
2240 471 1 -1.1128 4.57464182099761 0.034958459134697174 13.719442175147362 -3 0 0
1779 317 2 0.5564 -1.4076332963308573 5.386451737728248 7.590230858492504 3 0 0
1381 184 2 0.5564 2.1504848511606007 5.429675747121457 13.240578766096819 1 -3 0
2496 556 2 0.5564 13.286894920465784 7.5277309197011375 6.766830453345332 -3 2 0
3095 756 1 -1.1128 -0.8122489964884311 2.4092572181105987 10.283399345107656 1 -2 0
2929 700 2 0.5564 -0.5379538873182608 5.9877652628454845 2.225653505949281 1 2 0
488 2 4 0 9.82419 7.09 16.74620659931785 0 0 0
2051 408 1 -1.1128 6.883651311581401 7.571733787652314 12.818341765200598 0 0 0
1808 327 1 -1.1128 2.4668241925412535 4.987171229279706 9.76534407760167 1 2 0
2981 718 1 -1.1128 3.3129569771035827 7.128923291595967 13.345965886157835 -1 5 0
3510 894 2 0.5564 9.510395992018895 5.899813353304048 13.547912380760367 6 4 0
2691 621 2 0.5564 0.8893387051621406 2.2479694034354236 10.685437657648585 2 -2 0
2368 513 2 0.5564 3.4964958013235217 3.172703846483698 13.01112560263197 1 1 0
2366 513 1 -1.1128 4.3458490062044595 2.88622774822465 13.346927791092149 1 1 0
2690 621 1 -1.1128 1.7522140513613045 2.4382737783774213 11.05348998228003 2 -2 0
2692 621 2 0.5564 1.8843858887719407 3.371272716390577 10.885343911675541 2 -2 0
2367 513 2 0.5564 4.370742595937162 1.9465393145436813 13.166392438490742 1 1 0
3829 1000 2 0.5564 4.114038326018055 5.312590063022638 10.27899644050997 0 3 0
3827 1000 1 -1.1128 4.987828941021665 5.4205846879564925 10.654574088366493 0 3 0
3828 1000 2 0.5564 5.418198783364828 6.055803038920274 10.082288093189778 0 3 0
2453 542 1 -1.1128 5.518511229342102 5.261381440522446 13.197086706034801 3 2 0
2455 542 2 0.5564 5.41315550473499 5.279546521551954 12.2458751248661 3 2 0
1810 327 2 0.5564 2.3027076742171357 4.549641000212562 8.929959888608382 1 2 0
1809 327 2 0.5564 2.0824011937048152 5.857437148271919 9.66005049298971 1 2 0
2680 617 2 0.5564 -1.1666313267880588 3.395328084399962 4.935735250392804 2 -1 0
1380 184 2 0.5564 1.0148365902478431 4.429472279253996 13.282862300224261 1 -3 0
2194 455 2 0.5564 5.3445971675405834 0.8833245437405813 9.977046102637916 6 2 0
1379 184 1 -1.1128 1.959671808409822 4.496573808919095 13.14496585453354 1 -3 0
2982 718 2 0.5564 4.047795404132504 6.516933226068106 13.304591483081596 -1 5 0
3219 797 2 0.5564 10.00855621186423 0.2588892024986256 12.339584253100066 -2 4 0
1241 138 1 -1.1128 3.7781603595227473 1.592958350026113 9.384730498461492 3 0 0
2563 578 2 0.5564 1.8295680803722578 1.6065721075372241 12.498449244264439 -2 0 0
2967 713 2 0.5564 7.9433689084186945 3.738098295126523 12.063081233769724 -5 1 0
3229 800 2 0.5564 6.253643352245325 4.267889418317451 10.25639389491324 -1 0 0
855 9 2 0.5564 8.469135507665717 -0.5100557581261711 13.090602835684733 -3 2 0
2928 700 2 0.5564 -0.6839019972215663 7.4732292965792935 2.4786152516581863 1 2 0
485 2 4 0 9.82419 4.254 16.74620659931785 0 0 0
1213 128 2 0.5564 7.391560809187152 7.398507108992237 6.180905608231706 0 1 0
2290 487 2 0.5564 8.441998201246749 -0.6127898136799516 6.464953412541339 -1 0 0
481 2 4 0 7.36814 4.254 16.74620659931785 0 0 0
2752 641 2 0.5564 6.148477852408658 -0.47581392214800566 2.9757004941216527 -2 1 0
484 2 4 0 7.36814 7.09 16.74620659931785 0 0 0
3396 856 2 0.5564 3.282717894636145 -0.1467642426745908 8.433674418494077 -1 -1 0
2676 616 2 0.5564 11.465604112148018 4.559597925536136 8.185916127611753 -2 3 0
2856 676 2 0.5564 9.06082124261154 4.983205043450292 8.298227100799378 -4 -4 0
3213 795 2 0.5564 12.33133128747418 0.9553020822376481 11.015340046247442 3 1 0
2675 616 1 -1.1128 11.04621589751684 5.322646228408201 7.788295883434372 -2 3 0
1465 212 2 0.5564 9.392125555747498 1.1705407909225438 8.396222813594164 -4 4 0
2193 455 2 0.5564 6.786738740430536 0.42358813488703917 9.949354098036064 6 2 0
436 2 4 0 9.82419 2.836 16.74620659931785 0 0 0
2857 676 2 0.5564 7.713849475728788 4.454902324119182 8.743718127317683 -4 -4 0