LAMMPS data file via write_data, version 2 Aug 2023, timestep = 5750000, units = real

3832 atoms
4 atom types
2000 bonds
1 bond types
1000 angles
1 angle types
0 impropers
1 improper types

-1.8420299999999998 30.08661 xlo xhi
-0.709 33.323 ylo yhi
-150 150 zlo zhi

Masses

1 15.9994
2 1.00794
3 12.0107
4 12.0107

Pair Coeffs # lj/cut/tip4p/long

1 0.1852 3.1589
2 0 0
3 0.0859 3.3997
4 0.0859 3.3997

Bond Coeffs # harmonic

1 5000 0.9572

Angle Coeffs # harmonic

1 500 104.52

Atoms # full

1 1 3 0 0 0 -14.519096394668605 0 0 0
2 1 3 0 -1.22802 0.709 -14.519096394668605 0 0 0
3 1 3 0 -1.22802 2.127 -14.519096394668605 0 0 0
4 1 3 0 0 2.836 -14.519096394668605 0 0 0
5 1 3 0 2.45605 0 -14.519096394668605 0 0 0
6 1 3 0 1.22802 0.709 -14.519096394668605 0 0 0
7 1 3 0 1.22802 2.127 -14.519096394668605 0 0 0
8 1 3 0 2.45605 2.836 -14.519096394668605 0 0 0
9 1 3 0 4.9121 0 -14.519096394668605 0 0 0
10 1 3 0 3.68407 0.709 -14.519096394668605 0 0 0
11 1 3 0 3.68407 2.127 -14.519096394668605 0 0 0
12 1 3 0 4.9121 2.836 -14.519096394668605 0 0 0
14 1 3 0 6.14012 0.709 -14.519096394668605 0 0 0
15 1 3 0 6.14012 2.127 -14.519096394668605 0 0 0
53 1 3 0 0 4.254 -14.519096394668605 0 0 0
54 1 3 0 -1.22802 4.963 -14.519096394668605 0 0 0
55 1 3 0 -1.22802 6.381 -14.519096394668605 0 0 0
56 1 3 0 0 7.09 -14.519096394668605 0 0 0
57 1 3 0 2.45605 4.254 -14.519096394668605 0 0 0
58 1 3 0 1.22802 4.963 -14.519096394668605 0 0 0
59 1 3 0 1.22802 6.381 -14.519096394668605 0 0 0
60 1 3 0 2.45605 7.09 -14.519096394668605 0 0 0
61 1 3 0 4.9121 4.254 -14.519096394668605 0 0 0
62 1 3 0 3.68407 4.963 -14.519096394668605 0 0 0
63 1 3 0 3.68407 6.381 -14.519096394668605 0 0 0
64 1 3 0 4.9121 7.09 -14.519096394668605 0 0 0
66 1 3 0 6.14012 4.963 -14.519096394668605 0 0 0
67 1 3 0 6.14012 6.381 -14.519096394668605 0 0 0
2224 465 2 0.5564 0.9084969513280414 4.489177026469096 -11.55259518371457 0 1 0
3708 960 2 0.5564 4.675696501124824 1.1391493916239106 -11.329738339759443 1 0 0
3707 960 1 -1.1128 3.958821835546106 1.7375837385015194 -11.119494788828272 1 0 0
2222 465 1 -1.1128 0.9063421778179569 5.423472611232631 -11.344461564427105 0 1 0
2223 465 2 0.5564 1.8173413433546768 5.623510599489207 -11.129291210767844 0 1 0
1620 264 2 0.5564 -0.7368903201153502 4.369339483738332 -6.4600286536121105 -3 2 0
3628 933 2 0.5564 -1.3353949443361728 4.31801774997519 -8.865967126985892 1 -1 0
2160 444 2 0.5564 -0.5357923419855062 0.6990373639481768 -6.978977973584878 2 -1 0
2949 707 2 0.5564 0.6579578015700319 1.6421668982988804 -0.46199051515182143 3 -1 0
1238 137 1 -1.1128 1.541941571594355 2.6097734693801784 -9.772866408862177 -1 -2 0
3474 882 2 0.5564 4.438533210640271 6.184407485014737 -10.896532649888591 3 0 0
1239 137 2 0.5564 2.3983448904299753 2.3562228765043907 -10.11713245957597 -1 -2 0
3473 882 1 -1.1128 3.6391058450561737 6.585404359378162 -10.555431855806248 3 0 0
1088 87 1 -1.1128 1.7788785883109781 6.061201605467855 -7.931992739043112 -1 1 0
1090 87 2 0.5564 1.3317958107929384 5.256145676481891 -7.6707697320730155 -1 1 0
2070 414 2 0.5564 13.561976554102381 5.670359848745396 -1.7124255497512584 -2 0 0
2582 585 1 -1.1128 14.010729309872014 2.147045882054301 -7.9065718106527525 0 -2 0
1109 94 1 -1.1128 8.018934088618506 2.9980873586384074 -10.336160763862893 -3 1 0
1789 320 2 0.5564 2.865338904771483 2.480020066762562 -8.182353472248987 -2 -1 0
1111 94 2 0.5564 7.864507218077663 2.474749811150408 -9.549710249006232 -3 1 0
1640 271 1 -1.1128 5.624015348000332 4.2791023872014256 -11.155993411694213 -2 1 0
1641 271 2 0.5564 6.345254116225247 3.735079460349326 -10.839628850172922 -2 1 0
1110 94 2 0.5564 8.421868053358509 2.38869886368624 -10.954646603089461 -3 1 0
1787 320 1 -1.1128 3.5538960529474264 2.849911053928066 -7.629811882345936 -2 -1 0
1089 87 2 0.5564 2.263570189096673 5.821122934723767 -8.721719885879196 -1 1 0
2159 444 1 -1.1128 -1.0082695448194623 1.4572639687463407 -7.322626945615357 2 -1 0
1171 114 2 0.5564 -1.1132105571566255 7.209175176130442 -10.096737839484453 0 0 0
3709 960 2 0.5564 4.337438310071679 2.6107951514413474 -11.221400909984077 1 0 0
1240 137 2 0.5564 0.9538658572136117 1.9078092208500523 -10.051523971514243 -1 -2 0
885 19 2 0.5564 13.067887238984715 0.6606918048620608 -10.816098465950258 -4 2 0
2364 512 2 0.5564 10.21467402091584 0.491554819097351 -8.11327307413976 2 0 0
1139 104 1 -1.1128 -0.6710503454598135 6.434098400443125 -0.8889736854871735 -1 5 0
3205 792 2 0.5564 -0.7229759604753846 -0.1361179964431147 -10.093204080178987 -2 0 0
2155 442 2 0.5564 8.43877130882617 -0.5486213249494033 -2.2048352695615403 2 3 0
1029 67 2 0.5564 2.6786968898356625 -0.31180521895219027 -10.546180189405586 1 3 0
2116 429 2 0.5564 11.880602988901169 6.60862623997183 -0.05793966449842615 -3 -1 0
1642 271 2 0.5564 6.047546246650849 4.955498611512271 -11.684521441590078 -2 1 0
13 1 3 0 7.36814 0 -14.519096394668605 0 0 0
16 1 3 0 7.36814 2.836 -14.519096394668605 0 0 0
17 1 3 0 9.82419 0 -14.519096394668605 0 0 0
18 1 3 0 8.59617 0.709 -14.519096394668605 0 0 0
19 1 3 0 8.59617 2.127 -14.519096394668605 0 0 0
20 1 3 0 9.82419 2.836 -14.519096394668605 0 0 0
21 1 3 0 12.2802 0 -14.519096394668605 0 0 0
22 1 3 0 11.0522 0.709 -14.519096394668605 0 0 0
23 1 3 0 11.0522 2.127 -14.519096394668605 0 0 0
24 1 3 0 12.2802 2.836 -14.519096394668605 0 0 0
26 1 3 0 13.5083 0.709 -14.519096394668605 0 0 0
27 1 3 0 13.5083 2.127 -14.519096394668605 0 0 0
65 1 3 0 7.36814 4.254 -14.519096394668605 0 0 0
68 1 3 0 7.36814 7.09 -14.519096394668605 0 0 0
69 1 3 0 9.82419 4.254 -14.519096394668605 0 0 0
70 1 3 0 8.59617 4.963 -14.519096394668605 0 0 0
71 1 3 0 8.59617 6.381 -14.519096394668605 0 0 0
72 1 3 0 9.82419 7.09 -14.519096394668605 0 0 0
73 1 3 0 12.2802 4.254 -14.519096394668605 0 0 0
74 1 3 0 11.0522 4.963 -14.519096394668605 0 0 0
75 1 3 0 11.0522 6.381 -14.519096394668605 0 0 0
76 1 3 0 12.2802 7.09 -14.519096394668605 0 0 0
78 1 3 0 13.5083 4.963 -14.519096394668605 0 0 0
79 1 3 0 13.5083 6.381 -14.519096394668605 0 0 0
1104 92 2 0.5564 8.515873023273446 6.076610106909045 -11.212134368602511 3 2 0
2136 436 2 0.5564 2.6073070429097225 7.359998472826547 -6.916524281908303 0 3 0
1103 92 1 -1.1128 7.701782495287763 6.568583150195262 -11.319145996843917 3 2 0
1105 92 2 0.5564 7.278548416718643 6.521632986013855 -10.461882345086446 3 2 0
2823 665 2 0.5564 12.458161331614214 7.180746561269556 -9.034036363715526 1 3 0
1788 320 2 0.5564 3.9833265035924463 2.0886334537422346 -7.239581346015582 -2 -1 0
2571 581 2 0.5564 5.801141521247001 5.366626015803206 -9.293189568650826 -2 1 0
3220 797 2 0.5564 9.65592914346714 5.710256263370614 -9.511895724642077 -3 5 0
3218 797 1 -1.1128 10.069698693689466 5.648121508953842 -10.3728065622559 -3 5 0
3219 797 2 0.5564 10.398264073471205 4.750161340276042 -10.416911563945762 -3 5 0
2822 665 1 -1.1128 11.622339109495043 7.550225220336191 -9.318854226972928 1 3 0
2789 654 1 -1.1128 12.630017917339943 1.2454690804466264 -5.313038286093037 3 1 0
2791 654 2 0.5564 13.335660149298704 1.7808606718029227 -4.950191345639908 3 1 0
2122 431 2 0.5564 7.283403691833915 4.496836443680621 -7.865857985390486 -5 -2 0
2121 431 2 0.5564 7.953968926771449 3.3749189558800534 -7.101960714712307 -5 -2 0
884 19 1 -1.1128 13.83554928209641 1.225711217982299 -10.728447091627539 -4 2 0
2120 431 1 -1.1128 7.1040295693720825 3.6597412571600763 -7.437687040924399 -5 -2 0
2578 583 2 0.5564 3.390913255541627 3.691088754155731 -0.35733420103641816 4 1 0
2840 671 1 -1.1128 -0.686767577688428 -0.5195733024670219 -3.0470089232381294 -3 3 0
3791 988 1 -1.1128 6.112386097876537 0.0735779178494 -11.037881474615709 1 1 0
2790 654 2 0.5564 11.83345157378162 1.745341668257716 -5.134595700648929 3 1 0
1728 300 2 0.5564 9.617843090002385 6.519143631226876 -7.142042384267757 -2 3 0
2572 581 2 0.5564 5.998487433559139 6.466313724601376 -8.27160230714277 -2 1 0
2570 581 1 -1.1128 6.399286440754863 6.07194281032809 -9.046241472002878 -2 1 0
2742 638 2 0.5564 4.8302172251890845 7.314892169471539 -6.674600728511628 3 2 0
2583 585 2 0.5564 13.380099069240432 2.1439738188495387 -7.18648221288832 0 -2 0
3793 988 2 0.5564 6.173897104429927 0.26458601505907237 -10.101948523246287 1 1 0
1619 264 1 -1.1128 0.03186924342050465 4.09976020916352 -6.96259097104632 -3 2 0
2915 696 1 -1.1128 0.7824051710582843 -0.5585042503401066 -6.892194308988361 1 -1 0
1621 264 2 0.5564 -0.17601807919632428 3.2150572346038917 -7.263116842460217 -3 2 0
2824 665 2 0.5564 11.277819311595385 6.911470790454609 -9.942981968331486 1 3 0
2950 707 2 0.5564 0.36380013681848433 0.6599466864368665 -1.57582024032646 3 -1 0
1170 114 2 0.5564 -0.6063653916703767 6.32328216476058 -11.214860122056553 0 0 0
886 19 2 0.5564 13.6801103670168 1.7184597850688144 -9.92267336698768 -4 2 0
1169 114 1 -1.1128 -1.406302427126281 6.710641512793733 -10.859492056992455 0 0 0
3492 888 2 0.5564 12.446165130121598 -0.4978551015385369 -5.028632070411922 3 -3 0
3046 739 2 0.5564 -0.46669972791640996 5.983470907838022 -2.584374064341245 5 1 0
3663 945 2 0.5564 2.690518840466923 3.1416938526170024 -6.249977510226138 -3 2 0
2182 451 2 0.5564 2.479175689848769 -0.477807347936271 -4.449798227315841 3 5 0
1709 294 1 -1.1128 8.761203211296857 -0.18874598389861294 -11.077290393254275 -1 0 0
3207 793 2 0.5564 1.2143320367945467 6.893666072853512 -3.8938997812798313 2 0 0
3662 945 1 -1.1128 2.1108871636094046 3.2978814442997693 -5.504412879023775 -3 2 0
3420 864 2 0.5564 2.413443802692754 5.197193808518955 -1.0310089838034657 3 -3 0
3664 945 2 0.5564 1.2626849647927159 3.501691750440254 -5.898426907593643 -3 2 0
3421 864 2 0.5564 1.7475916701059908 4.255145045827199 -2.011357945171985 3 -3 0
2987 720 1 -1.1128 5.190020396120808 1.9648723198575664 -2.1130113879257313 1 0 0
1710 294 2 0.5564 7.813879658019539 -0.051753436450006234 -11.084443744919968 -1 0 0
3419 864 1 -1.1128 2.6062919756007035 4.531325794549209 -1.6910592203250163 3 -3 0
2699 624 1 -1.1128 11.526095710311964 -0.5724326953570232 -11.115614941912131 -1 4 0
2204 459 1 -1.1128 3.031387435853424 1.3952388325658576 -3.7376686767357077 0 -3 0
2700 624 2 0.5564 10.581918105941067 -0.6325673444620278 -11.261027535328214 -1 4 0
1741 304 2 0.5564 3.3780846202102297 4.885531103125572 -3.302534213959663 -1 1 0
1739 304 1 -1.1128 3.687016470134854 5.03069169973615 -4.19680620471875 -1 1 0
2492 555 1 -1.1128 0.2473491646268921 3.2386953224552557 -3.412146168132733 1 0 0
2493 555 2 0.5564 1.1097901523857814 2.9431868763834603 -3.703869541829485 1 0 0
2494 555 2 0.5564 0.09506854683632718 2.7646065942005666 -2.5946603704740436 1 0 0
2205 459 2 0.5564 2.796285888554643 1.9828137508390031 -4.455802378512719 0 -3 0
2206 459 2 0.5564 3.6809089362726577 1.8830444979892833 -3.231307635312792 0 -3 0
1127 100 1 -1.1128 13.250151442949711 0.32038208465847384 -1.2467620569956088 3 4 0
2137 436 2 0.5564 2.82909226592491 7.695596119187725 -5.457042683937944 0 3 0
1711 294 2 0.5564 8.99730454420698 -0.1844682213649218 -10.149674030109141 -1 0 0
1740 304 2 0.5564 3.1165272165142524 4.486062422002859 -4.73916540462479 -1 1 0
3044 739 1 -1.1128 -0.5004338554301835 5.931229718545094 -3.5395556458073583 5 1 0
2161 444 2 0.5564 -1.789139222293105 1.5227857134060567 -6.772914636918338 2 -1 0
2988 720 2 0.5564 5.811097528009221 2.6099765749214217 -2.451148951614985 1 0 0
2989 720 2 0.5564 5.549851982478155 1.7072375897150307 -1.2642583731812274 1 0 0
3383 852 1 -1.1128 10.018557629144635 7.485643867006277 -3.834213758895003 0 -2 0
3208 793 2 0.5564 2.576887739043675 6.267612581572134 -4.102214064265182 2 0 0
1784 319 1 -1.1128 6.914363763457194 0.150991947377034 -8.280460818116747 1 4 0
3045 739 2 0.5564 -0.23012975871134225 5.035263374018104 -3.7405919830519374 5 1 0
1095 89 2 0.5564 4.277901918998222 -0.02554264885018891 -6.567526690060498 -2 -1 0
1512 228 2 0.5564 -0.9877988536806556 3.7794232476167027 -0.12868262277075063 5 -1 0
3206 793 1 -1.1128 2.150854042940939 7.085961868839365 -3.847199626302352 2 0 0
3203 792 1 -1.1128 -0.2608000562913354 0.6572186428124498 -9.822562122547042 -2 0 0
2948 707 1 -1.1128 0.3568721039371972 1.5945914109033685 -1.3693626487097783 3 -1 0
1096 89 2 0.5564 4.7316383952666 0.34091025670033853 -5.1704823231194865 -2 -1 0
1773 315 2 0.5564 10.39314027767583 3.7727753202296936 -1.0836001593939462 -2 -2 0
1141 104 2 0.5564 -0.787013227818393 7.304158751669304 -0.5071524343980052 -1 5 0
1785 319 2 0.5564 6.603238993138792 0.7805512649634591 -7.630006611365319 1 4 0
2720 631 1 -1.1128 11.707087148948318 5.161856252994444 -3.722233156488456 -1 -3 0
1941 371 2 0.5564 9.115711132429167 1.7764214676055725 -3.912020554625653 2 0 0
3204 792 2 0.5564 -0.5164619836938833 0.7840222489451977 -8.9088915809005 -2 0 0
2903 692 1 -1.1128 7.834343951346551 2.6143850374396496 -2.832419145976501 4 0 0
2741 638 1 -1.1128 5.785119155188397 7.315520894283567 -6.740919673048442 3 2 0
2069 414 1 -1.1128 14.033296169472477 4.98475283026157 -2.1857475189171396 -2 0 0
2923 698 2 0.5564 8.464298102552561 6.867925526892349 -3.3411567691718824 1 4 0
2580 584 2 0.5564 9.792062874173451 2.288846089897342 -6.433810888585075 2 3 0
989 54 1 -1.1128 12.038720200773966 4.208512814190358 -6.5445518145763 1 -4 0
2721 631 2 0.5564 12.55965627343668 5.168432584019352 -3.2871288221890276 -1 -3 0
1128 100 2 0.5564 12.446658086000582 0.11847282923095756 -0.7673213668157954 3 4 0
2579 584 1 -1.1128 9.993507550290818 2.4265996843583535 -7.359379304278899 2 3 0
3385 852 2 0.5564 10.62092059333866 6.746053822021241 -3.914209662582432 0 -2 0
1129 100 2 0.5564 13.349624319219986 -0.40416084688462045 -1.8643184971748785 3 4 0
2581 584 2 0.5564 10.780217765664394 2.971854787799832 -7.3551931878065595 2 3 0
2722 631 2 0.5564 11.08226266613929 4.969879333085474 -3.0229668296538064 -1 -3 0
2921 698 1 -1.1128 7.621552217158166 6.559660008225486 -3.00800100252529 1 4 0
1094 89 1 -1.1128 4.653710158088845 0.6920343456933299 -6.057540210524016 -2 -1 0
1786 319 2 0.5564 7.862557130750269 0.27974204152548343 -8.304697026417758 1 4 0
1727 300 1 -1.1128 9.74138873885339 5.70482614186645 -7.6297471178621885 -2 3 0
1940 371 1 -1.1128 9.688993225276969 1.2257202960453188 -4.445229037140941 2 0 0
1729 300 2 0.5564 10.650448855663674 5.458429090428777 -7.459069459329706 -2 3 0
3656 943 1 -1.1128 6.436792568954983 4.327043092165649 -4.482992950714793 -2 1 0
990 54 2 0.5564 11.820052567311766 4.4831779802218765 -5.654058483661924 1 -4 0
2363 512 1 -1.1128 9.641336403926863 -0.2473678852310077 -8.317014327702823 2 0 0
2904 692 2 0.5564 7.338037100237099 3.1853457248087786 -3.4188629662824837 4 0 0
1772 315 1 -1.1128 9.8688182219917 4.382682482913159 -1.6025740231030283 -2 -2 0
3658 943 2 0.5564 6.597995703442912 4.3313744958408815 -5.4265127579337005 -2 1 0
2867 680 1 -1.1128 7.846308150311703 5.885798837408701 -0.024023379636785344 -1 -2 0
991 54 2 0.5564 12.976635738246975 4.381653941577541 -6.625606079726455 1 -4 0
2905 692 2 0.5564 8.20813481980484 3.2069077691841814 -2.180169561991057 4 0 0
2154 442 2 0.5564 7.57706751878061 0.6914444309065626 -2.3125382211991874 2 3 0
2153 442 1 -1.1128 7.544832838854098 -0.2619327645539484 -2.3916930379015118 2 3 0
1942 371 2 0.5564 9.345974437338146 0.3395982527811388 -4.329650112110876 2 0 0
2922 698 2 0.5564 7.277976745957658 6.0006005081944025 -3.7048810501685345 1 4 0
2869 680 2 0.5564 7.774663114542143 6.086887232372391 -0.9571172641127725 -1 -2 0
3657 943 2 0.5564 5.5572737195148925 4.692667719770623 -4.388118529190908 -2 1 0
2144 439 1 -1.1128 3.5197821007334045 0.09318267376021666 -0.3969851120277573 -2 2 0
2452 541 2 0.5564 0.5019493903390657 7.191836172549398 -8.29987567626653 2 1 0
1774 315 2 0.5564 10.13800771499981 5.249466794953515 -1.298510590630959 -2 -2 0
3475 882 2 0.5564 3.863966694021703 7.50867813421374 -10.440378598896174 3 0 0
1140 104 2 0.5564 -1.074324209509884 5.838975942811966 -0.25696714781150715 -1 5 0
2146 439 2 0.5564 3.431566292390261 0.7627978282590612 -1.0752668177430775 -2 2 0
1912 361 2 0.5564 14.069071549138652 1.8711091095050973 -2.06590574164219 -2 -2 0
1613 262 1 -1.1128 10.860675361199013 2.3959507472464323 0.24484078802890807 -5 2 0
1556 243 1 -1.1128 5.0060907947696105 0.5773055811607024 4.0159444713808226 2 -6 0
1388 187 1 -1.1128 2.8274197326414767 3.035749200134592 7.304838019195633 2 -3 0
996 56 2 0.5564 7.543628304031321 2.9148449434399057 0.8078496538616544 4 -1 0
1390 187 2 0.5564 3.090262747655494 2.9213095428237232 6.391572974407917 2 -3 0
1963 378 2 0.5564 2.0090558354317203 6.8735255841150815 0.9834597535003393 -3 -3 0
1389 187 2 0.5564 3.599751326599523 3.4059505400283805 7.732260064194106 2 -3 0
2658 610 2 0.5564 -0.5224611984484272 -0.2029668477622142 12.823084958451835 2 1 0
1122 98 2 0.5564 4.052255275474891 4.216026178433114 3.88415186398243 -1 4 0
2286 486 2 0.5564 2.5217164046835387 2.640789780699139 3.8512970990121977 6 0 0
2868 680 2 0.5564 7.000851548689197 6.1443999497301265 0.3428090144206699 -1 -2 0
2287 486 2 0.5564 3.8361417488128082 2.0494194528224354 4.314400795766236 6 0 0
1558 243 2 0.5564 4.64408002106648 0.2385015629585298 4.834722254987287 2 -6 0
1557 243 2 0.5564 5.911747431219477 0.8023697697960216 4.228938059321392 2 -6 0
3447 873 2 0.5564 1.3825989238769234 4.792451261183666 3.4360357010541454 0 -1 0
3446 873 1 -1.1128 1.6888384077186178 4.296744790216907 2.676610907855689 0 -1 0
2285 486 1 -1.1128 3.231423315798848 2.772717276817698 4.479901445110569 6 0 0
1360 177 2 0.5564 0.4545853424637385 1.0161262421731392 9.402929861449314 1 0 0
2096 423 1 -1.1128 -1.2896775185256362 0.5108429868178923 7.246432127400299 -1 -3 0
3631 934 2 0.5564 5.1860204293122045 7.368411079962216 5.7242028210250355 0 3 0
1531 234 2 0.5564 5.3874547636555254 -0.3551252968615873 2.4473201091996177 -3 -5 0
3503 892 1 -1.1128 13.135081184796078 0.9964545569967989 7.7403377892286045 0 0 0
1244 139 1 -1.1128 0.15256554258705837 4.221335673672586 5.331845875587891 3 1 0
3448 873 2 0.5564 1.6312642738771188 4.914477584705756 1.9476903028719912 0 -1 0
1246 139 2 0.5564 0.6842663808430409 4.678886947496842 5.9831323474047675 3 1 0
3433 868 2 0.5564 5.437999933893311 2.4839973316815485 0.49273619847390865 0 0 0
1121 98 1 -1.1128 4.666324533329387 4.911766506899538 3.6494250942108777 -1 4 0
1123 98 2 0.5564 4.647126019377542 5.510708105027631 4.3958384898546194 -1 4 0
2577 583 2 0.5564 3.4018087105705574 3.7274905691990536 1.1560906309068189 4 1 0
3273 815 2 0.5564 13.689783388670232 5.492818665113057 14.027809497298339 1 1 0
3180 784 2 0.5564 2.96807173194794 6.675911298016697 7.801170943039201 -1 -2 0
3630 934 2 0.5564 4.282106106298242 6.440920289493785 6.508164900129753 0 3 0
1707 293 2 0.5564 1.296159052874709 5.810245672397746 8.092865171683343 -2 -2 0
1708 293 2 0.5564 2.0321233681114688 4.742571956784362 7.311631972052392 -2 -2 0
1706 293 1 -1.1128 1.51745308523901 5.542022718635766 7.201059375011121 -2 -2 0
3432 868 2 0.5564 5.951432207776237 1.068037846733313 0.6455401043284102 0 0 0
3629 934 1 -1.1128 4.85540836989149 6.4702983141403925 5.742205457129412 0 3 0
3395 856 1 -1.1128 0.9931097707008956 1.2761982269290901 1.2349410465926391 -2 -1 0
1513 228 2 0.5564 0.17712374189797347 3.736858449110932 0.8372589727547508 5 -1 0
1961 378 1 -1.1128 1.6661670597240765 6.168992302272908 0.4336408960643036 -3 -3 0
1265 146 1 -1.1128 8.943457272168656 6.129119970918431 9.073830076691126 0 0 0
2873 682 1 -1.1128 -0.07586047667164635 1.7615314803618787 3.748910907106561 -1 1 0
1615 262 2 0.5564 11.544469112983515 2.408212855495026 0.914552149845471 -5 2 0
2048 407 1 -1.1128 3.6256802114296445 -0.6843609301161127 5.989723697161435 4 5 0
1962 378 2 0.5564 0.860105163662815 6.526137637477586 0.060887570761743094 -3 -3 0
1309 160 2 0.5564 10.420254232984433 -0.6347623233515786 3.5350655087548035 -1 1 0
2329 500 2 0.5564 10.391463617436727 0.5676871063817982 0.11906214641449281 -3 0 0
1266 146 2 0.5564 9.610199391485544 5.448945083360958 9.168959227846178 0 0 0
1245 139 2 0.5564 -0.5769644728658433 4.815861606508906 5.15703913840272 3 1 0
1070 81 1 -1.1128 12.584608917125125 6.330298054719046 6.95729347262734 2 0 0
1330 167 2 0.5564 4.991123213725405 5.698842274270848 2.0165961167208977 -2 1 0
1511 228 1 -1.1128 -0.7571574808896157 3.9387969867137334 0.7865439954517718 5 -1 0
3531 901 2 0.5564 14.067888070944447 5.350299876380244 10.5592583323202 0 3 0
486 2 4 0 8.59617 4.963 16.74620659931785 0 0 0
948 40 2 0.5564 6.897903561934229 2.047105982927471 5.507562111871347 1 4 0
949 40 2 0.5564 7.2976982719307495 2.7268907098340254 4.215295625208728 1 4 0
947 40 1 -1.1128 7.384452464835497 1.9036083069967897 4.695828635029628 1 4 0
3031 734 2 0.5564 5.155923540827333 3.657178025276058 9.371884005821045 -1 5 0
1328 167 1 -1.1128 5.321376558096208 6.180356136820329 1.2581034340039439 -2 1 0
2114 429 1 -1.1128 12.560028086340132 5.964761419882217 0.14219025595659476 -3 -1 0
2711 628 1 -1.1128 13.711565613438358 -0.29426956117963854 2.810645299206798 1 0 0
2016 396 2 0.5564 13.186036085524107 1.3834678244783665 1.9633003525690618 1 1 0
2422 531 2 0.5564 8.91373072300512 1.2001845995320064 5.022516495761202 4 0 0
2420 531 1 -1.1128 9.782009636860185 0.824736475284387 5.168677422400014 4 0 0
1267 146 2 0.5564 8.656667838578512 6.058384357577964 8.163346274248171 0 0 0
2421 531 2 0.5564 10.38972324078981 1.5121003462029758 4.895827209204798 4 0 0
3518 897 1 -1.1128 7.343560693754559 4.612142935591765 3.361471328163697 -1 3 0
1529 234 1 -1.1128 5.92375197081122 -0.5027335603045878 1.6683254938580416 -3 -5 0
2115 429 2 0.5564 12.530227109656009 5.872531824091702 1.0944708149325828 -3 -1 0
3748 973 2 0.5564 8.35204544416276 7.609027172373274 0.5008641153689996 2 3 0
2017 396 2 0.5564 13.631340144371382 2.808987584340357 1.715321709190727 1 1 0
2015 396 1 -1.1128 12.871884157710321 2.2875678640484556 1.9752843253736239 1 1 0
2077 416 2 0.5564 10.218866748097089 5.166048487578647 4.253124472003296 1 -1 0
2874 682 2 0.5564 0.1578831365861659 0.9821940418418779 4.2531274422073855 -1 1 0
3520 897 2 0.5564 7.604948860068581 4.3215913546263645 2.487690902517784 -1 3 0
3519 897 2 0.5564 6.402733329613677 4.77304001879612 3.2894233355049214 -1 3 0
1714 295 2 0.5564 12.190136327535917 7.6445322057572325 10.634563308056405 2 3 0
2076 416 2 0.5564 9.340297666657198 5.559334002427069 3.0846476082368532 1 -1 0
2075 416 1 -1.1128 9.917772078361992 5.925580205381457 3.754439194041429 1 -1 0
1662 278 2 0.5564 7.866531299752056 5.1274178731938465 5.807781339534309 2 -1 0
1663 278 2 0.5564 6.605548230062747 5.833910467640802 6.257988320303075 2 -1 0
1661 278 1 -1.1128 7.345029216787028 5.322481449996491 6.586381477244465 2 -1 0
995 56 1 -1.1128 8.267582163080657 3.508726534776156 1.006414439169691 4 -1 0
2807 660 1 -1.1128 11.055227240688025 3.233646811084754 4.128343531746709 2 1 0
2808 660 2 0.5564 11.533523272973138 2.89522076916242 3.371418026159708 2 1 0
2809 660 2 0.5564 11.719178008740753 3.685021559041016 4.649558499387617 2 1 0
2968 713 2 0.5564 12.022689219693047 6.273640010088067 3.267058609951566 -5 2 0
2966 713 1 -1.1128 12.804685870064722 5.9763376460086475 2.8019513740342004 -5 2 0
429 2 4 0 7.36814 0 16.74620659931785 0 0 0
3431 868 1 -1.1128 6.219953270946549 1.945224592475352 0.37227394592071156 0 0 0
2433 535 2 0.5564 8.337235143109469 6.955430749501715 13.500266703613631 4 1 0
1168 113 2 0.5564 6.181052418652902 3.601742593841556 6.8533709232299405 -3 0 0
3147 773 2 0.5564 13.68246776272524 7.680706525601652 12.851578825172698 2 2 0
1071 81 2 0.5564 12.46744853384292 7.191510129569209 6.55626981655807 2 0 0
1614 262 2 0.5564 10.057422432462493 2.61306624769719 0.7180009811937039 -5 2 0
1329 167 2 0.5564 5.1843969027808665 7.1012922131751415 1.4802422246748403 -2 1 0
1837 336 2 0.5564 10.246957845274148 -0.2213688721026918 6.65734430619537 -2 -4 0
2265 479 2 0.5564 6.370909772494269 5.047221247318489 10.408612200353978 -3 -2 0
491 2 4 0 11.0522 6.381 16.74620659931785 0 0 0
3274 815 2 0.5564 13.745310063132667 5.106758834317911 12.565013957566851 1 1 0
495 2 4 0 13.5083 6.381 16.74620659931785 0 0 0
1358 177 1 -1.1128 1.3772707656015386 0.8717015488273164 9.193105250153925 1 0 0
1359 177 2 0.5564 1.7059438441221033 1.7367097687122672 8.948223861704774 1 0 0
1114 95 2 0.5564 -0.5833633730782573 5.27685575959975 10.161292302139667 0 -3 0
3179 784 1 -1.1128 3.685612968539387 7.286085020245543 7.971627227452644 -1 -2 0
1803 325 2 0.5564 5.321614454768276 7.090705077789905 10.83350793192576 -1 -2 0
1928 367 1 -1.1128 11.152996539257899 -0.4370463253706392 13.105697279788806 4 0 0
3530 901 1 -1.1128 13.311274638621176 4.773522343766317 10.664600471138435 0 3 0
1112 95 1 -1.1128 -1.436777525503284 5.023170633842039 10.512810939907755 0 -3 0
432 2 4 0 7.36814 2.836 16.74620659931785 0 0 0
439 2 4 0 11.0522 2.127 16.74620659931785 0 0 0
481 2 4 0 7.36814 4.254 16.74620659931785 0 0 0
2112 428 2 0.5564 -0.6091823322887124 4.837620619839082 13.588920911504134 3 4 0
1072 81 2 0.5564 12.294368095177896 6.445419436515547 7.862136366109917 2 0 0
1813 328 2 0.5564 3.0480250659510486 0.008746870810875117 8.733591326122077 0 1 0
3397 856 2 0.5564 0.5791480286455603 1.5435608790033892 2.055543310775131 -2 -1 0
1045 72 2 0.5564 -1.5221585708481782 2.2022876860413234 3.1255770954649686 -1 2 0
875 16 1 -1.1128 4.020858663891545 6.657808016186778 13.387616018782346 1 0 0
3795 989 2 0.5564 13.543114653158167 5.075378398869129 5.491998466012438 -2 -2 0
3248 807 1 -1.1128 3.18934757561537 1.7945909522243975 10.90905152590657 -1 1 0
1954 375 2 0.5564 1.6015926073103366 5.975045800837616 10.330643612888668 -1 3 0
3688 953 2 0.5564 1.2347508099189592 1.29986015620631 13.411921575995617 1 -1 0
3811 994 2 0.5564 5.202158282397201 1.5820628340239133 10.008239583235923 -3 -3 0
3687 953 2 0.5564 0.20642335985945448 2.350213470929569 13.049708107835984 1 -1 0
3686 953 1 -1.1128 0.38825867883147974 1.4130582736843051 12.979637312139353 1 -1 0
1952 375 1 -1.1128 0.8535683980249463 6.29415074215917 9.825800994440032 -1 3 0
2307 493 2 0.5564 3.477607998990491 5.541965747837136 11.898059077828941 -1 -1 0
2889 687 2 0.5564 4.397473995254359 1.0221946784716844 13.393371110162107 4 0 0
3181 784 2 0.5564 4.151878750136931 6.906221894673627 8.71629668028845 -1 -2 0
2306 493 1 -1.1128 3.0952160353393965 4.992846693075856 11.21360158050702 -1 -1 0
2890 687 2 0.5564 3.7392855804667517 -0.19703815058465662 14.003419268759862 4 0 0
2888 687 1 -1.1128 3.5642832833742246 0.5528184098456768 13.434805557710963 4 0 0
1164 112 2 0.5564 -0.725643938141803 1.563792247499827 11.350062793819257 4 5 0
1163 112 1 -1.1128 -1.0203836824129748 1.2395942368967985 10.499029545942278 4 5 0
1165 112 2 0.5564 -1.6905136433692236 1.8648683563981787 10.222993933565391 4 5 0
2308 493 2 0.5564 2.9859768291136226 4.136135036439542 11.626330207977256 -1 -1 0
3250 807 2 0.5564 3.4766683644406844 1.1478593850151628 11.553581507298995 -1 1 0
3249 807 2 0.5564 2.423335249584782 1.396947523762 10.49511994831907 -1 1 0
1895 356 1 -1.1128 5.696068128030883 2.1895439914494657 13.044085842729418 0 -1 0
1897 356 2 0.5564 6.338406611775629 2.382531077914846 13.727013415782169 0 -1 0
1896 356 2 0.5564 6.172149278268312 2.3179076875231073 12.2236576551662 0 -1 0
1880 351 1 -1.1128 -0.24717384431586975 6.615611009574169 13.653023706049549 -1 -1 0
1930 367 2 0.5564 11.363141246080723 -0.6006270278642669 12.186286840885776 4 0 0
433 2 4 0 9.82419 0 16.74620659931785 0 0 0
485 2 4 0 9.82419 4.254 16.74620659931785 0 0 0
1953 375 2 0.5564 1.0169015427011332 7.231504849815896 9.721261003228195 -1 3 0
492 2 4 0 12.2802 7.09 16.74620659931785 0 0 0
1101 91 2 0.5564 8.640028109513073 7.432884143022602 4.299617180369334 -1 1 0
1881 351 2 0.5564 0.5423042401946804 7.116751947891738 13.44853859607914 -1 -1 0
435 2 4 0 8.59617 2.127 16.74620659931785 0 0 0
438 2 4 0 11.0522 0.709 16.74620659931785 0 0 0
2111 428 1 -1.1128 -0.9776096628864317 4.046886029471977 13.194919147882867 3 4 0
2576 583 1 -1.1128 3.747027029764972 3.2400168189210805 0.40814132598741076 4 1 0
2424 532 2 0.5564 13.865410911624393 3.1462133303617486 10.317685198723831 3 -1 0
1113 95 2 0.5564 -1.2508265339604696 4.726580952257664 11.403705668206241 0 -3 0
1929 367 2 0.5564 11.391340809398883 0.4791720746098709 13.247010704358752 4 0 0
1835 336 1 -1.1128 10.92445698141214 -0.6276813804235699 7.197846101525471 -2 -4 0
2254 475 2 0.5564 7.9959159579348205 5.37958094052693 12.39330360733875 0 -5 0
876 16 2 0.5564 3.2178773447257005 7.178820555247235 13.387603731499393 1 0 0
2328 500 2 0.5564 10.341377498843343 -0.525647278978118 1.1650121712476138 -3 0 0
1166 113 1 -1.1128 5.710547678640645 2.770917699859932 6.785627819212311 -3 0 0
494 2 4 0 13.5083 4.963 16.74620659931785 0 0 0
2875 682 2 0.5564 0.12577379620958265 2.4937219445633234 4.331556221985091 -1 1 0
1167 113 2 0.5564 5.931598213516324 2.3035600078802454 7.591200173412805 -3 0 0
3809 994 1 -1.1128 6.007912820149213 1.9100438622866134 9.60896387931661 -3 -3 0
3030 734 2 0.5564 4.246694339725959 4.766472505620871 9.856308438775716 -1 5 0
3810 994 2 0.5564 6.703083955817037 1.3843111240825938 10.004659702939868 -3 -3 0
1579 250 2 0.5564 8.336518700607497 0.2023408841136782 11.380776026741918 0 5 0
1811 328 1 -1.1128 3.779643432987522 -0.5891011114943568 8.580143323642604 0 1 0
2327 500 1 -1.1128 10.528740023165609 -0.371997318608637 0.23898745269878352 -3 0 0
2266 479 2 0.5564 7.539562931866945 6.008388719361253 10.456603196503345 -3 -2 0
2264 479 1 -1.1128 6.845725319353795 5.632698593390708 10.998527743088236 -3 -2 0
442 2 4 0 13.5083 0.709 16.74620659931785 0 0 0
1908 360 2 0.5564 -1.218472274874464 3.390183781951918 6.238845711125723 1 0 0
3105 759 2 0.5564 9.330506663040186 2.2973687523658652 14.150547076303713 -4 2 0
3532 901 2 0.5564 12.554048247587088 5.351801237826934 10.572764613221135 0 3 0
3504 892 2 0.5564 12.504417623504043 0.283783733695218 7.843288804344367 0 0 0
440 2 4 0 12.2802 2.836 16.74620659931785 0 0 0
3029 734 1 -1.1128 4.728916272140232 4.464891624852484 9.086407099488214 -1 5 0
436 2 4 0 9.82419 2.836 16.74620659931785 0 0 0