LAMMPS data file via write_data, version 2 Aug 2023, timestep = 6250000, units = real

3232 atoms
4 atom types
1600 bonds
1 bond types
800 angles
1 angle types
0 impropers
1 improper types

-1.8420299999999998 30.08661 xlo xhi
-0.709 33.323 ylo yhi
-150 150 zlo zhi

Masses

1 15.9994
2 1.00794
3 12.0107
4 12.0107

Pair Coeffs # lj/cut/tip4p/long

1 0.1852 3.1589
2 0 0
3 0.0859 3.3997
4 0.0859 3.3997

Bond Coeffs # harmonic

1 5000 0.9572

Angle Coeffs # harmonic

1 500 104.52

Atoms # full

1 1 3 0 0 0 -13.028967241974486 0 0 0
2 1 3 0 -1.22802 0.709 -13.028967241974486 0 0 0
3 1 3 0 -1.22802 2.127 -13.028967241974486 0 0 0
4 1 3 0 0 2.836 -13.028967241974486 0 0 0
5 1 3 0 2.45605 0 -13.028967241974486 0 0 0
6 1 3 0 1.22802 0.709 -13.028967241974486 0 0 0
7 1 3 0 1.22802 2.127 -13.028967241974486 0 0 0
8 1 3 0 2.45605 2.836 -13.028967241974486 0 0 0
9 1 3 0 4.9121 0 -13.028967241974486 0 0 0
10 1 3 0 3.68407 0.709 -13.028967241974486 0 0 0
11 1 3 0 3.68407 2.127 -13.028967241974486 0 0 0
12 1 3 0 4.9121 2.836 -13.028967241974486 0 0 0
14 1 3 0 6.14012 0.709 -13.028967241974486 0 0 0
15 1 3 0 6.14012 2.127 -13.028967241974486 0 0 0
53 1 3 0 0 4.254 -13.028967241974486 0 0 0
54 1 3 0 -1.22802 4.963 -13.028967241974486 0 0 0
55 1 3 0 -1.22802 6.381 -13.028967241974486 0 0 0
56 1 3 0 0 7.09 -13.028967241974486 0 0 0
57 1 3 0 2.45605 4.254 -13.028967241974486 0 0 0
58 1 3 0 1.22802 4.963 -13.028967241974486 0 0 0
59 1 3 0 1.22802 6.381 -13.028967241974486 0 0 0
60 1 3 0 2.45605 7.09 -13.028967241974486 0 0 0
61 1 3 0 4.9121 4.254 -13.028967241974486 0 0 0
62 1 3 0 3.68407 4.963 -13.028967241974486 0 0 0
63 1 3 0 3.68407 6.381 -13.028967241974486 0 0 0
64 1 3 0 4.9121 7.09 -13.028967241974486 0 0 0
66 1 3 0 6.14012 4.963 -13.028967241974486 0 0 0
67 1 3 0 6.14012 6.381 -13.028967241974486 0 0 0
2254 475 2 0.5564 -1.0493629657710117 2.376827827030041 -10.12810980978663 3 -1 0
2208 460 2 0.5564 -0.7104215340849727 6.273176670180354 -9.238402628115296 2 3 0
2986 719 2 0.5564 2.6377146318889233 5.428043437130129 -6.456067565299339 -1 2 0
2252 475 1 -1.1128 -1.6165858342520631 3.0766569243843804 -9.804486914005386 3 -1 0
2209 460 2 0.5564 -0.9687869615287791 6.6602794996549175 -10.678990784880996 2 3 0
2984 719 1 -1.1128 2.1471382151776095 4.841247407271648 -7.031599462901274 -1 2 0
2985 719 2 0.5564 2.2722324592749845 5.20491278376333 -7.908145625485692 -1 2 0
2207 460 1 -1.1128 -0.9487514214690018 7.017429673716368 -9.791144771485563 2 3 0
2007 393 2 0.5564 1.1307003050484803 0.9515545290390037 -9.70548292943702 1 0 0
2012 395 1 -1.1128 2.2338988974891887 0.05273776016854234 -1.8042488917435728 0 -1 0
2006 393 1 -1.1128 0.17748265268193564 0.9055083681940143 -9.77956957273162 1 0 0
1473 215 2 0.5564 3.093254413896638 1.476589399573083 -8.948617378491246 1 -2 0
2048 407 1 -1.1128 3.4811241962765394 6.130316590525529 -9.338749606593717 -3 0 0
2049 407 2 0.5564 3.8175508870389185 5.654324858155788 -10.098011821162396 -3 0 0
2004 392 2 0.5564 0.160281202713837 2.4519717840568283 -0.18850318273073696 0 2 0
2050 407 2 0.5564 3.621875582933043 7.052756073215128 -9.552122026497319 -3 0 0
1232 135 1 -1.1128 12.307436055850467 1.3219350185742507 -0.484694490755843 3 0 0
2079 417 2 0.5564 -0.015981463048811324 4.395159413275284 -7.393608405793406 3 4 0
2842 671 2 0.5564 7.393716158792289 1.157303717949703 -0.21945126822048197 1 3 0
2418 530 2 0.5564 -0.5881667593293454 0.9430013733136476 -8.119322493884125 2 -2 0
1095 89 2 0.5564 2.9776323144396635 3.386195505303249 -7.348601510372752 1 -4 0
2153 442 1 -1.1128 5.047520431382686 -0.30041742315837816 -6.57221307389504 1 1 0
1472 215 1 -1.1128 3.1740546070624953 0.9834985128948566 -9.76505147645534 1 -2 0
1836 336 2 0.5564 -1.393086397236359 1.6151796195325676 -0.8544556312251902 2 1 0
981 51 2 0.5564 8.886350757707692 6.573165616245273 -7.311383084548543 1 -2 0
1630 267 2 0.5564 13.631618471305773 4.770728600144136 -1.5066880461968786 -4 -1 0
1474 215 2 0.5564 3.3331416901839352 0.08178109329622706 -9.486073198600444 1 -2 0
2080 417 2 0.5564 -0.5945430995795136 4.078040587244684 -8.756179959355515 3 4 0
1687 286 2 0.5564 8.64050116459102 6.848788280976698 -0.31859017212296287 -1 2 0
2206 459 2 0.5564 5.045773677645581 1.7502561980172229 -9.768798644049076 -3 -3 0
2335 502 2 0.5564 6.407322918198806 5.371602428068648 -9.824394448888317 0 -2 0
13 1 3 0 7.36814 0 -13.028967241974486 0 0 0
16 1 3 0 7.36814 2.836 -13.028967241974486 0 0 0
17 1 3 0 9.82419 0 -13.028967241974486 0 0 0
18 1 3 0 8.59617 0.709 -13.028967241974486 0 0 0
19 1 3 0 8.59617 2.127 -13.028967241974486 0 0 0
20 1 3 0 9.82419 2.836 -13.028967241974486 0 0 0
21 1 3 0 12.2802 0 -13.028967241974486 0 0 0
22 1 3 0 11.0522 0.709 -13.028967241974486 0 0 0
23 1 3 0 11.0522 2.127 -13.028967241974486 0 0 0
24 1 3 0 12.2802 2.836 -13.028967241974486 0 0 0
26 1 3 0 13.5083 0.709 -13.028967241974486 0 0 0
27 1 3 0 13.5083 2.127 -13.028967241974486 0 0 0
65 1 3 0 7.36814 4.254 -13.028967241974486 0 0 0
68 1 3 0 7.36814 7.09 -13.028967241974486 0 0 0
69 1 3 0 9.82419 4.254 -13.028967241974486 0 0 0
70 1 3 0 8.59617 4.963 -13.028967241974486 0 0 0
71 1 3 0 8.59617 6.381 -13.028967241974486 0 0 0
72 1 3 0 9.82419 7.09 -13.028967241974486 0 0 0
73 1 3 0 12.2802 4.254 -13.028967241974486 0 0 0
74 1 3 0 11.0522 4.963 -13.028967241974486 0 0 0
75 1 3 0 11.0522 6.381 -13.028967241974486 0 0 0
76 1 3 0 12.2802 7.09 -13.028967241974486 0 0 0
78 1 3 0 13.5083 4.963 -13.028967241974486 0 0 0
79 1 3 0 13.5083 6.381 -13.028967241974486 0 0 0
2334 502 2 0.5564 6.289414750495913 4.560954036419113 -8.551271239833865 0 -2 0
2333 502 1 -1.1128 6.2785863798168196 4.478543086504234 -9.504855648547766 0 -2 0
3020 731 1 -1.1128 9.257308971981757 3.612007877349024 -9.996595509161374 3 3 0
3021 731 2 0.5564 8.345850490550573 3.898965689086354 -9.940654839367376 3 3 0
2356 509 2 0.5564 10.581027037900242 5.043141246631746 -10.168907649306064 -3 -1 0
2354 509 1 -1.1128 10.879948845365005 5.883790197487135 -9.822225376185047 -3 -1 0
3022 731 2 0.5564 9.485104767635605 3.360552194051025 -9.101546608942725 3 3 0
2355 509 2 0.5564 11.806506313967072 5.746319410689636 -9.625179854567994 -3 -1 0
2166 446 2 0.5564 12.571247561077932 4.045155834068501 -4.856074054158298 0 -1 0
2593 588 2 0.5564 10.1126879150548 0.5142413461378492 -9.036444743409918 1 -3 0
1528 233 2 0.5564 12.793046237179048 1.388317126072101 -7.377581392282322 -1 3 0
2204 459 1 -1.1128 5.9976948745251955 1.755192731405212 -9.869072333460691 -3 -3 0
2591 588 1 -1.1128 10.405641926640099 0.5365274558335913 -9.947442738254242 1 -3 0
2205 459 2 0.5564 6.2431426614137155 2.6765153483647413 -9.784492649557421 -3 -3 0
2592 588 2 0.5564 10.09422689245096 1.3786839433722895 -10.279141830189648 1 -3 0
1973 382 1 -1.1128 8.925568584159327 3.318156413907726 -2.641450034414204 1 0 0
1362 178 2 0.5564 -1.7686940472921997 6.95597754849521 -4.941450041787256 0 -1 0
1955 376 1 -1.1128 13.684669281939199 5.564287656298304 -9.477109380644743 2 2 0
2851 674 2 0.5564 13.550214176907515 -0.06344238700363687 -9.510184102292204 0 1 0
1527 233 2 0.5564 12.524822528933202 2.4641482392261844 -6.346787450442027 -1 3 0
2008 393 2 0.5564 -0.002006985641996392 -0.007723103860114857 -10.003232009859373 1 0 0
2946 706 2 0.5564 6.875292875791925 1.2142923761525823 -8.14293916466177 1 5 0
982 51 2 0.5564 9.426513117817025 5.912284526466955 -8.561725223082806 1 -2 0
1957 376 2 0.5564 13.958222557488908 5.569847788924028 -8.559847268382258 2 2 0
1526 233 1 -1.1128 12.155414578896403 1.6632663935813827 -6.718748592514014 -1 3 0
2840 671 1 -1.1128 6.710994759927142 0.523041104716345 -0.4381638850479932 1 3 0
1826 333 1 -1.1128 6.883307345150192 7.12618633239025 -9.827266648496561 -4 -2 0
2013 395 2 0.5564 2.1881205091073697 -0.5717034548556942 -1.08022743971429 0 -1 0
2419 530 2 0.5564 -0.4609840576830859 1.7023610627258159 -6.815830328234381 2 -2 0
1905 359 2 0.5564 7.201907711741525 0.4500695803079471 -10.08571671343271 4 2 0
2078 417 1 -1.1128 -0.3440818115779708 4.809404397069519 -8.191720728770852 3 4 0
2961 711 2 0.5564 3.8867618036420506 7.003382166060203 -0.7274773160475755 0 -2 0
2849 674 1 -1.1128 13.166348809487737 0.7742419614552771 -9.251022250570049 0 1 0
2154 442 2 0.5564 5.733229111113818 0.32044628847539214 -6.818313381735326 1 1 0
3175 782 2 0.5564 2.852161552590966 3.3229266412188188 -0.4763375922623424 2 2 0
980 51 1 -1.1128 8.624308617966195 6.026535770465369 -8.052167828825567 1 -2 0
1827 333 2 0.5564 7.42076633223705 6.728290133081501 -9.142395708021596 -4 -2 0
3003 725 2 0.5564 1.0060193172414438 0.6953367164922594 -3.3634033328724953 2 -1 0
1151 108 1 -1.1128 1.249762548710251 5.506174828222087 -0.235699231368643 0 1 0
2266 479 2 0.5564 4.440973920179576 6.658542511052848 -7.227793618775805 3 -4 0
2265 479 2 0.5564 4.83057731390438 6.3528849406841434 -5.7971738204494665 3 -4 0
1048 73 2 0.5564 3.5421501188216085 2.5627363298125485 -4.093550486572126 3 -1 0
1096 89 2 0.5564 2.8892043921877417 1.995993630949163 -6.75580333508138 1 -4 0
1047 73 2 0.5564 2.9597859319890722 1.1653328310192699 -4.096839944898824 3 -1 0
3174 782 2 0.5564 3.762282332220112 4.531787044113055 -0.5235660456447123 2 2 0
2395 522 2 0.5564 2.7752207896473484 4.909019964197413 -3.567665929634203 -1 1 0
2264 479 1 -1.1128 4.390842831663714 7.008642952057079 -6.338329531610273 3 -4 0
2393 522 1 -1.1128 3.5721860597718122 4.3956166624125235 -3.435387378087396 -1 1 0
2394 522 2 0.5564 3.6349707268806686 4.290238113998737 -2.486076683771912 -1 1 0
3033 735 2 0.5564 1.514627558642768 5.904119153064974 -2.1011982169191157 1 0 0
3161 778 1 -1.1128 0.2549346133769749 3.148792753633194 -5.816545855980139 -1 2 0
3163 778 2 0.5564 0.5063757182673961 2.719758679628769 -4.998664595089746 -1 2 0
1835 336 1 -1.1128 -0.9019209816606457 2.154017693729735 -1.4746543314569371 2 1 0
3162 778 2 0.5564 0.9827094134358415 3.7392055890983653 -6.011445731525312 -1 2 0
1837 336 2 0.5564 -1.4018290385008858 2.968177669994517 -1.533588359800195 2 1 0
3032 735 1 -1.1128 1.2206139581316957 5.993643411432562 -3.007716379629044 1 0 0
2417 530 1 -1.1128 -0.7526557372370757 0.8663486269210471 -7.179481254650389 2 -2 0
1094 89 1 -1.1128 3.0807062431542462 2.460766512428863 -7.570386433826358 1 -4 0
3173 782 1 -1.1128 3.70867960612834 3.6138024470391144 -0.7893874107040533 2 2 0
833 2 1 -1.1128 12.402248624683516 -0.14411098150866047 -4.5960965683609345 -2 -1 0
2962 711 2 0.5564 3.6806081613178305 6.867464914909398 -2.2211041222155092 0 -2 0
3004 725 2 0.5564 -0.23086880293949164 1.4929329494731054 -3.00866658798931 2 -1 0
1046 73 1 -1.1128 3.2471043904798065 1.8670235649398987 -4.681057439998205 3 -1 0
3002 725 1 -1.1128 0.35726121727747434 1.2920175781506202 -3.7366543149640363 2 -1 0
2775 649 2 0.5564 -0.23546545419811776 5.70016619010586 -4.155311304847457 4 -1 0
2774 649 1 -1.1128 -1.0170397490271321 5.297912918027027 -4.534217865685692 4 -1 0
2776 649 2 0.5564 -0.6995122755258746 4.490191208447188 -4.937945794852922 4 -1 0
2122 431 2 0.5564 14.044820940069558 5.258682337146537 -6.060236880774148 0 3 0
1152 108 2 0.5564 0.34951247149570913 5.77609940519483 -0.4171428489390877 0 1 0
2389 520 2 0.5564 8.327402779291937 -0.6276737542732062 -1.5585861139946984 2 3 0
2565 579 2 0.5564 6.987885011548539 3.268431117345631 -6.944567491474173 -2 0 0
2947 706 2 0.5564 8.037672301321477 1.1416424453361314 -7.17573006788493 1 5 0
2165 446 1 -1.1128 13.328452466530365 3.7460651331779067 -5.359482459520983 0 -1 0
1828 333 2 0.5564 6.13863674157557 7.503602572641067 -9.359022070763126 -4 -2 0
855 9 2 0.5564 10.059411914541624 7.457211319455834 -10.0734913722311 -1 -3 0
1376 183 1 -1.1128 10.479001763484183 6.632688206867916 -5.406812799088841 3 5 0
2959 710 2 0.5564 9.13120488376126 2.9227680766874413 -0.45042641925790766 -2 -2 0
1069 80 2 0.5564 11.170281000062609 0.8275931422177244 -3.3238770157820037 0 2 0
1628 267 1 -1.1128 13.0089200575613 5.194650432836103 -2.09725121895836 -4 -1 0
1378 183 2 0.5564 9.612749206504494 6.9265036043001516 -5.124836285516516 3 5 0
1407 193 2 0.5564 11.4197860093069 4.941798667812057 -1.0446299287346694 1 4 0
1490 221 1 -1.1128 7.628918493480052 7.4236427140083325 -4.9220569280971045 -3 -1 0
1233 135 2 0.5564 12.985063782698578 0.7680885517844303 -0.8723879333706639 3 0 0
834 2 2 0.5564 12.38427637017308 0.5482190647032837 -5.256846408902816 -2 -1 0
2960 711 1 -1.1128 4.068742984687608 6.423614524463097 -1.4670609036289464 0 -2 0
1906 359 2 0.5564 8.644499103233253 -0.009081328936834443 -10.088661803973256 4 2 0
2554 575 2 0.5564 4.974865182063494 4.914506988387777 -4.022683674096781 0 0 0
2014 395 2 0.5564 3.1551933191854915 0.3097466524249986 -1.841613763815599 0 -1 0
1068 80 2 0.5564 10.05944102865647 0.5061445406113345 -2.3468411935054956 0 2 0
2673 615 2 0.5564 4.570683208198516 2.2617439293238553 -1.5368976269694241 2 -1 0
1408 193 2 0.5564 10.363049117555688 5.350375857628929 -0.04050550554128843 1 4 0
2155 442 2 0.5564 4.606571330281525 0.1111930155295345 -5.828995809142357 1 1 0
2850 674 2 0.5564 12.252119595537522 0.715346942747629 -9.528422826619037 0 1 0
1024 65 2 0.5564 10.441175876750826 0.3069466692649771 -6.770149899119444 0 3 0
1581 251 2 0.5564 11.669081498462722 4.9837923628653735 -3.308672786163106 -1 -2 0
1582 251 2 0.5564 10.473145275660139 4.055633560042596 -3.3210207185939993 -1 -2 0
1974 382 2 0.5564 8.293594285630622 3.0968134585604825 -3.32544378636582 1 0 0
2566 579 2 0.5564 7.6558265662621166 4.62541109699296 -6.878557999708754 -2 0 0
2552 575 1 -1.1128 5.708425408660699 5.348686427611497 -4.458125332539203 0 0 0
1075 82 2 0.5564 5.994611188363607 1.6202632539476034 -3.3743213621508445 -3 0 0
2553 575 2 0.5564 6.070669985321546 4.6812957211906125 -5.040877937388507 0 0 0
2564 579 1 -1.1128 6.827112734900316 4.180238904678248 -6.701675305489695 -2 0 0
2329 500 2 0.5564 10.70550959334827 2.6506690367361556 -6.982626100176708 -2 0 0
1406 193 1 -1.1128 10.818022699512264 4.5848127406290144 -0.39142843523579446 1 4 0
3050 741 1 -1.1128 6.912860806922708 5.62986892779862 -1.3516883309082095 4 3 0
1234 135 2 0.5564 11.568793015087843 1.25667514060311 -1.0899871841142932 3 0 0
1580 251 1 -1.1128 11.036081469267565 4.57260021464128 -3.8972847294246358 -1 -2 0
2328 500 2 0.5564 10.611243680769475 4.091056504977357 -7.439014948277543 -2 0 0
2327 500 1 -1.1128 10.078989181131956 3.3125012061657455 -7.275345110397085 -2 0 0
1067 80 1 -1.1128 10.61675635271072 1.2227585114024966 -2.6503149241298027 0 2 0
1074 82 2 0.5564 6.511461321413537 1.22850311016078 -4.742266742613017 -3 0 0
1491 221 2 0.5564 7.109959972553802 6.632518048310484 -5.067094088538785 -3 -1 0
1073 82 1 -1.1128 6.645035147250671 1.8591688025395587 -4.034700367909856 -3 0 0
3102 758 2 0.5564 0.15978578044376468 -0.18826630566221875 -4.522248191009069 5 -1 0
2672 615 1 -1.1128 4.835604287743608 1.451260880761505 -1.9718258798356683 2 -1 0
2480 551 1 -1.1128 12.058852403160696 7.766422315518288 -7.409166733909789 0 1 0
1975 382 2 0.5564 9.445954100980058 2.5226787392399994 -2.528994825980575 1 0 0
1629 267 2 0.5564 13.210883887493805 6.1278315780283386 -2.029317683758163 -4 -1 0
3051 741 2 0.5564 6.040484204135542 5.934211197062712 -1.601823068691237 4 3 0
3052 741 2 0.5564 7.238507628874702 5.171732272867125 -2.126476607748909 4 3 0
2945 706 1 -1.1128 7.132425053783112 1.4437307255118856 -7.249924669506964 1 5 0
2674 615 2 0.5564 5.435840126292527 1.0328466574538853 -1.3546739479612429 2 -1 0
1022 65 1 -1.1128 9.645207078983088 0.10976228101925072 -7.263894143078516 0 3 0
3034 735 2 0.5564 1.5301556570496913 6.858744545636889 -3.276079312811817 1 0 0
1377 183 2 0.5564 10.596728033845821 5.785518821421397 -4.9770726111069035 3 5 0
2481 551 2 0.5564 12.810293842062334 7.210182356522274 -7.203821460074982 0 1 0
2618 597 1 -1.1128 -1.5311909046758023 6.920084037958291 -0.5843445683816787 -1 -1 0
2482 551 2 0.5564 11.351678196209361 7.426442736688174 -6.860939850868751 0 1 0
1639 270 2 0.5564 3.7174957479821478 7.552014474941878 -4.603368971282255 3 1 0
1904 359 1 -1.1128 7.749099135769746 -0.3272497244458125 -9.973511730495016 4 2 0
2167 446 2 0.5564 13.808976990412324 3.179161744483729 -4.75619762815487 0 -1 0
2835 669 2 0.5564 11.428759819920089 7.2963782706281695 -3.897670013739485 3 -2 0
1003 58 2 0.5564 14.047554773977215 7.2454221206736795 -9.813245787773413 -1 -5 0
2489 554 1 -1.1128 0.4684915767516474 4.0229098567553345 2.8489940319400473 3 1 0
2220 464 2 0.5564 11.021168421213655 0.31997204252282097 0.7053021177074978 4 1 0
2522 565 1 -1.1128 2.6361821787963713 -0.28268709480739934 5.23865029046538 0 3 0
2490 554 2 0.5564 0.3933902057907632 3.545236098717963 2.0229075159169767 3 1 0
2491 554 2 0.5564 0.48230028452996054 3.340707853613475 3.5202897074197925 3 1 0
2523 565 2 0.5564 3.4015641841885924 -0.06275456266173057 5.769736593456329 0 3 0
2936 703 1 -1.1128 0.6418074638427506 1.6328152509892928 7.824992652809495 0 -1 0
2837 670 1 -1.1128 0.9539372605365251 1.8821681571072226 4.506129286528067 -3 -2 0
2937 703 2 0.5564 0.8572474003278667 1.6443840269461447 6.892424390978198 0 -1 0
2838 670 2 0.5564 0.6826007504738044 1.2244034899523148 3.8658498019463847 -3 -2 0
2865 679 2 0.5564 7.8497296952217175 2.505999366961182 3.8795593272223945 0 1 0
2623 598 2 0.5564 2.3665042497888438 6.571481300808695 4.327012039302115 3 -3 0
2864 679 1 -1.1128 7.100033187694572 2.052428274250368 4.264863938422268 0 1 0
1285 152 2 0.5564 5.370955422518802 2.981267667730179 3.5599049407440857 1 2 0
2330 501 1 -1.1128 8.727873645061317 6.002640105161455 6.121919298518184 2 -2 0
1283 152 1 -1.1128 4.772343449591027 3.327714869327395 2.898186653009538 1 2 0
1284 152 2 0.5564 5.3449435045678575 3.7100877536955825 2.233239897416175 1 2 0
2969 714 1 -1.1128 2.7204042655144223 4.6975983961448975 4.318487436649125 3 6 0
2496 556 2 0.5564 -0.6937457234077661 7.215276974924914 2.9645170205637554 -1 2 0
2970 714 2 0.5564 1.9884305966385325 4.478521648452222 3.7418985558714146 3 6 0
2621 598 1 -1.1128 2.142587862976411 7.498456943725398 4.244489745676716 3 -3 0
1119 97 2 0.5564 4.163429152724847 3.719190876580521 6.83709699773402 -1 0 0
2839 670 2 0.5564 0.15139815295531195 2.101859786525713 4.979308516078534 -3 -2 0
1389 187 2 0.5564 5.359441764942696 1.0650274548109993 6.535777360261673 1 1 0
1686 286 2 0.5564 8.928555403419306 6.719042660357019 1.161979723651439 -1 2 0
2119 430 2 0.5564 -1.1026897256192583 -0.2270638456310476 4.03803760756537 -1 0 0
2284 485 2 0.5564 -1.330752742275233 3.4022383226912063 6.113874365600047 -2 1 0
2283 485 2 0.5564 -0.37531877593128143 2.934333918168341 7.190958073577343 -2 1 0
2971 714 2 0.5564 3.4799619077955968 4.281678233932191 3.910667468205085 3 6 0
1154 109 1 -1.1128 2.8566878133916407 5.04092448568428 7.20676035954611 0 2 0
1155 109 2 0.5564 2.3594049806526765 5.027298845971055 6.388985224178546 0 2 0
2135 436 1 -1.1128 -0.758894300467065 6.2229599657525325 6.307483780257953 0 1 0
1892 355 1 -1.1128 -1.6017959897635394 -0.13237167174360795 5.670476561336337 2 1 0
1671 281 2 0.5564 3.426521194498999 1.8467127379790782 2.1434229746036664 0 -1 0
2403 525 2 0.5564 12.192039390738396 7.422464408828373 3.754850897007054 -2 1 0
487 2 4 0 8.59617 6.381 12.736959109302104 0 0 0
2495 556 1 -1.1128 -0.8089602075478542 6.595955589709779 2.243819420335406 -1 2 0
1156 109 2 0.5564 2.224934287154971 5.32569416929281 7.867083102028091 0 2 0
1118 97 1 -1.1128 4.940042898909383 3.347129217751268 6.41915824049594 -1 0 0
2497 556 2 0.5564 -0.6224134318383223 5.740416363649293 2.6304541268153177 -1 2 0
2221 464 2 0.5564 9.607362015404101 0.8578790579180744 0.7661428220224439 4 1 0
2332 501 2 0.5564 8.889739723197348 6.843673694790707 5.694491037176512 2 -2 0
1672 281 2 0.5564 3.212132903888093 0.46265956544456355 1.5686781936613854 0 -1 0
2493 555 2 0.5564 4.804746044660619 7.106012012936648 2.7500022434792695 -3 1 0
2620 597 2 0.5564 -1.7392459556126025 6.818306018840804 0.3444108213462126 -1 -1 0
2843 672 1 -1.1128 -1.4596049477415898 5.1225379442081955 9.05987604559937 -1 2 0
2282 485 1 -1.1128 -0.4780300545996748 3.593415319822944 6.504447367509149 -2 1 0
2866 679 2 0.5564 6.802682335717035 2.6327374373959684 4.965617458860971 0 1 0
1388 187 1 -1.1128 4.986700055741214 0.3066295770000271 6.985363685622855 1 1 0
2137 436 2 0.5564 -1.6879693556492286 6.075574373878136 6.484482622029168 0 1 0
1120 97 2 0.5564 5.263248644330526 4.044783586306122 5.849028070000018 -1 0 0
1893 355 2 0.5564 -0.7822879000967596 -0.3563338533672409 6.111473603625533 2 1 0
2886 686 2 0.5564 -0.641983846549842 -0.24687100933754055 10.244554537774533 -5 -3 0
931 34 2 0.5564 5.931642887208466 5.73977460734871 4.320862197009158 -2 2 0
1150 107 2 0.5564 12.166848245771297 5.108461604453238 4.269165988848715 -4 1 0
929 34 1 -1.1128 6.406156242805857 5.070316548711953 4.813710551073848 -2 2 0
1400 191 1 -1.1128 13.510989070304486 4.8247989941697424 5.431026780027235 -1 0 0
1985 386 1 -1.1128 10.32917901663834 -0.4304652145438465 5.108623206440185 2 0 0
1082 85 1 -1.1128 11.54468546757724 2.8658304084408908 1.8562183889069872 1 -2 0
2331 501 2 0.5564 9.60023723521638 5.663530622652332 6.32246454660179 2 -2 0
2085 419 2 0.5564 7.028279432979792 4.754826794034274 0.38681415584520623 -1 0 0
2086 419 2 0.5564 7.5536625038543574 4.709049488980751 1.805888765894875 -1 0 0
1670 281 1 -1.1128 2.747111923087984 1.2669275722587228 1.7992073742417252 0 -1 0
1042 71 2 0.5564 9.957957793515602 3.13651406155656 2.8178872468048106 1 0 0
1041 71 2 0.5564 8.83184106395408 4.094709973818558 3.14286768646046 1 0 0
2957 710 1 -1.1128 8.680828562978846 2.4362848922740814 0.24002928801229895 -2 -2 0
1040 71 1 -1.1128 9.301277001222946 3.3342125645748633 3.4856575614935355 1 0 0
2360 511 1 -1.1128 3.216269896236415 6.639010818472468 1.6567905046105662 1 -3 0
492 2 4 0 12.2802 7.09 12.736959109302104 0 0 0
2420 531 1 -1.1128 2.9542217243717235 7.403383133709815 9.064355352677177 -1 2 0
1402 191 2 0.5564 13.548649954678302 5.054108785582378 6.359590581105338 -1 0 0
1390 187 2 0.5564 5.190972608673095 -0.4346363352931071 6.415244997567971 1 1 0
1513 228 2 0.5564 11.330854245509151 0.4077191041461224 2.426192921307744 -2 4 0
1511 228 1 -1.1128 11.981022179418916 0.1548719810453052 3.081612812437773 -2 4 0
2524 565 2 0.5564 2.161300476284799 0.5434899114467376 5.148359563059372 0 3 0
484 2 4 0 7.36814 7.09 12.736959109302104 0 0 0
2219 464 1 -1.1128 10.12518058567331 0.06986866145010694 0.930881356598557 4 1 0
1401 191 2 0.5564 13.585789358538657 3.870644170761634 5.416233560129939 -1 0 0
1148 107 1 -1.1128 11.484231214044298 5.383943713559674 3.6572988770678703 -4 1 0
2649 607 2 0.5564 9.466914352553442 1.3250852065534118 5.916043743289505 2 2 0
2650 607 2 0.5564 9.970374477506319 2.5568243024599173 5.194073841174756 2 2 0
2958 710 2 0.5564 8.073135798054437 3.0693402524874975 0.6223753458500736 -2 -2 0
2648 607 1 -1.1128 9.631515945348543 2.2600213731182333 6.038654156484601 2 2 0
1536 236 2 0.5564 6.4125925375419675 0.3038544992818689 9.812474826206705 5 0 0
2845 672 2 0.5564 -1.4336931492787874 5.108350176461283 8.103132430849588 -1 2 0
930 34 2 0.5564 7.0412318032981425 5.5612196298215855 5.335176187252348 -2 2 0
1149 107 2 0.5564 11.556896772913898 4.771663799627174 2.925134182901485 -4 1 0
2084 419 1 -1.1128 6.947722826394312 4.270578860563982 1.2085499859522297 -1 0 0
938 37 1 -1.1128 10.808510252839753 0.9474243176745454 8.55636588832496 0 -1 0
3126 766 2 0.5564 4.460272955629905 6.080577537927423 7.739144058954338 -3 1 0
2555 576 1 -1.1128 8.620142887404693 5.806788761250812 2.7156377194764567 0 -2 0
1685 286 1 -1.1128 9.358238714741411 6.835310732401502 0.31457915842643336 -1 2 0
1552 241 2 0.5564 6.796776491970147 0.700629313179109 2.9343211807954757 0 0 0
2492 555 1 -1.1128 5.5480067272622335 7.159131972362621 3.3508127824051495 -3 1 0
2563 578 2 0.5564 6.686069074736189 6.02906744731537 9.064606616940656 2 1 0
2896 689 2 0.5564 13.233505891095101 1.7535370373769494 4.469342269390129 -3 0 0
2556 576 2 0.5564 9.475814580264739 6.06119369557735 3.0610947525958965 0 -2 0
1343 172 1 -1.1128 13.736414518403127 5.27579447892904 8.096862840124386 0 -1 0
2983 718 2 0.5564 -1.7931557007831533 6.981569064834408 9.225966774872163 -1 0 0
3069 747 2 0.5564 5.21857142476287 -0.5812340593323521 8.581687032710262 2 4 0
1986 386 2 0.5564 11.005728059535846 -0.15729544619949135 4.489028643950645 2 0 0
3127 766 2 0.5564 5.503031599210669 6.812923610799417 6.921696765448582 -3 1 0
2885 686 1 -1.1128 -1.2230809080713776 -0.2643576087310934 9.484125937133795 -5 -3 0
2136 436 2 0.5564 -0.39488177989113193 5.345542755706567 6.189754865057152 0 1 0
1084 85 2 0.5564 12.196068306302948 2.2557207671278174 1.5102505319301271 1 -2 0
2887 686 2 0.5564 -0.669091840933002 0.0076150621642531256 8.752443495432312 -5 -3 0
2841 671 2 0.5564 6.442918672797068 0.15855472326984388 0.4053512946755351 1 3 0
2557 576 2 0.5564 8.018133951023293 5.932689387709881 3.4491012286130966 0 -2 0
494 2 4 0 13.5083 4.963 12.736959109302104 0 0 0
2237 470 1 -1.1128 11.358983250863831 7.42493640021319 8.931959013911406 1 0 0
1903 358 2 0.5564 1.8451768617681426 6.001192005356247 9.640656719607598 -2 3 0
2938 703 2 0.5564 1.4708154374029476 1.8205078835615167 8.265162247001744 0 -1 0
1901 358 1 -1.1128 1.1981431448663737 5.331965122131738 9.417684365884778 -2 3 0
1799 324 1 -1.1128 2.7402052324389916 2.115471361549709 9.335163688092624 1 0 0
1800 324 2 0.5564 3.5415379911819245 2.5892417063868876 9.557963316411477 1 0 0
1801 324 2 0.5564 2.8279469051059265 1.2727538469214188 9.780538741331672 1 0 0
482 2 4 0 6.14012 4.963 12.736959109302104 0 0 0
480 2 4 0 4.9121 7.09 12.736959109302104 0 0 0
483 2 4 0 6.14012 6.381 12.736959109302104 0 0 0
417 2 4 0 0 0 12.736959109302104 0 0 0
418 2 4 0 -1.22802 0.709 12.736959109302104 0 0 0
419 2 4 0 -1.22802 2.127 12.736959109302104 0 0 0
420 2 4 0 0 2.836 12.736959109302104 0 0 0
421 2 4 0 2.45605 0 12.736959109302104 0 0 0
422 2 4 0 1.22802 0.709 12.736959109302104 0 0 0
423 2 4 0 1.22802 2.127 12.736959109302104 0 0 0
424 2 4 0 2.45605 2.836 12.736959109302104 0 0 0
425 2 4 0 4.9121 0 12.736959109302104 0 0 0
426 2 4 0 3.68407 0.709 12.736959109302104 0 0 0
427 2 4 0 3.68407 2.127 12.736959109302104 0 0 0
428 2 4 0 4.9121 2.836 12.736959109302104 0 0 0
430 2 4 0 6.14012 0.709 12.736959109302104 0 0 0
431 2 4 0 6.14012 2.127 12.736959109302104 0 0 0
469 2 4 0 0 4.254 12.736959109302104 0 0 0
470 2 4 0 -1.22802 4.963 12.736959109302104 0 0 0
471 2 4 0 -1.22802 6.381 12.736959109302104 0 0 0
472 2 4 0 0 7.09 12.736959109302104 0 0 0
473 2 4 0 2.45605 4.254 12.736959109302104 0 0 0
474 2 4 0 1.22802 4.963 12.736959109302104 0 0 0
475 2 4 0 1.22802 6.381 12.736959109302104 0 0 0
476 2 4 0 2.45605 7.09 12.736959109302104 0 0 0
477 2 4 0 4.9121 4.254 12.736959109302104 0 0 0
478 2 4 0 3.68407 4.963 12.736959109302104 0 0 0
479 2 4 0 3.68407 6.381 12.736959109302104 0 0 0
1008 60 2 0.5564 5.302637759609791 3.250281776320795 8.587308949889396 6 0 0
1009 60 2 0.5564 5.835600861799068 4.1944574645731585 9.643896145930505 6 0 0
1007 60 1 -1.1128 5.396286565368967 3.351081908674687 9.534569234212016 6 0 0
1902 358 2 0.5564 1.5928839538192203 4.510023473265358 9.708928093208797 -2 3 0
3125 766 1 -1.1128 5.395417917104316 6.283002807669884 7.711531374776436 -3 1 0
2844 672 2 0.5564 -0.5462694567205866 5.235658840568838 9.323035830196828 -1 2 0
2210 461 1 -1.1128 8.669379908207517 3.1155178679709477 8.41915918237773 -4 4 0
436 2 4 0 9.82419 2.836 12.736959109302104 0 0 0
2003 392 1 -1.1128 0.8552373826957947 2.817719025268318 0.35876549008946707 0 2 0
2117 430 1 -1.1128 -0.6399725584892044 -0.022628082785072542 3.225431833324852 -1 0 0
440 2 4 0 12.2802 2.836 12.736959109302104 0 0 0
433 2 4 0 9.82419 0 12.736959109302104 0 0 0
429 2 4 0 7.36814 0 12.736959109302104 0 0 0
2361 511 2 0.5564 2.765393053708261 7.331362659024784 2.1401030352804944 1 -3 0
439 2 4 0 11.0522 2.127 12.736959109302104 0 0 0
1344 172 2 0.5564 12.96908602456677 4.9450922498464065 8.563845334182776 0 -1 0
2561 578 1 -1.1128 7.434970390727806 5.919173377055675 9.650529049579042 2 1 0
2916 696 2 0.5564 12.7588704579902 0.4812049655146543 8.916996626800554 -1 -3 0
490 2 4 0 11.0522 4.963 12.736959109302104 0 0 0
939 37 2 0.5564 10.701848685589647 1.5906862180069923 9.257129135726315 0 -1 0
442 2 4 0 13.5083 0.709 12.736959109302104 0 0 0
489 2 4 0 12.2802 4.254 12.736959109302104 0 0 0
2212 461 2 0.5564 8.950285023321028 2.937296532703078 7.521625365128924 -4 4 0
2915 696 1 -1.1128 13.530363981994633 -0.05402138552765519 8.731085658846949 -1 -3 0
432 2 4 0 7.36814 2.836 12.736959109302104 0 0 0
2211 461 2 0.5564 8.133072211148969 2.359312991472081 8.657405585125005 -4 4 0
940 37 2 0.5564 10.565168031409065 1.418279182269751 7.759301269112281 0 -1 0
486 2 4 0 8.59617 4.963 12.736959109302104 0 0 0
488 2 4 0 9.82419 7.09 12.736959109302104 0 0 0
1535 236 1 -1.1128 6.998309550071962 1.040817914011432 9.639112936602809 5 0 0
491 2 4 0 11.0522 6.381 12.736959109302104 0 0 0
1537 236 2 0.5564 6.473727502713037 1.816299770155395 9.838300122073266 5 0 0
443 2 4 0 13.5083 2.127 12.736959109302104 0 0 0
438 2 4 0 11.0522 0.709 12.736959109302104 0 0 0
485 2 4 0 9.82419 4.254 12.736959109302104 0 0 0
435 2 4 0 8.59617 2.127 12.736959109302104 0 0 0
1830 334 2 0.5564 10.94965734114146 5.105618817093274 9.465998003093896 -1 1 0
1831 334 2 0.5564 10.257610647145752 3.8645440905698636 8.943790493870187 -1 1 0
1829 334 1 -1.1128 11.117439976437328 4.203822645962715 9.192420277131335 -1 1 0
481 2 4 0 7.36814 4.254 12.736959109302104 0 0 0
437 2 4 0 12.2802 0 12.736959109302104 0 0 0
495 2 4 0 13.5083 6.381 12.736959109302104 0 0 0
2562 578 2 0.5564 7.988590234741664 5.272009025581008 9.21358993073367 2 1 0
434 2 4 0 8.59617 0.709 12.736959109302104 0 0 0
1057 76 2 0.5564 8.102294922465235 7.633926390003574 9.486512689003913 -3 0 0
2362 511 2 0.5564 2.5125714898555374 6.086667339296167 1.3162647198202508 1 -3 0
2894 689 1 -1.1128 13.94224504965212 2.2810263997540012 4.837683032220653 -3 0 0