LAMMPS data file via write_data, version 2 Aug 2023, timestep = 5250000, units = real

5032 atoms
4 atom types
2800 bonds
1 bond types
1400 angles
1 angle types
0 impropers
1 improper types

-1.8420299999999998 30.08661 xlo xhi
-0.709 33.323 ylo yhi
-150 150 zlo zhi

Masses

1 15.9994
2 1.00794
3 12.0107
4 12.0107

Pair Coeffs # lj/cut/tip4p/long

1 0.1852 3.1589
2 0 0
3 0.0859 3.3997
4 0.0859 3.3997

Bond Coeffs # harmonic

1 5000 0.9572

Angle Coeffs # harmonic

1 500 104.52

Atoms # full

1 1 3 0 0 0 -19.086524130372066 0 0 0
2 1 3 0 -1.22802 0.709 -19.086524130372066 0 0 0
3 1 3 0 -1.22802 2.127 -19.086524130372066 0 0 0
4 1 3 0 0 2.836 -19.086524130372066 0 0 0
5 1 3 0 2.45605 0 -19.086524130372066 0 0 0
6 1 3 0 1.22802 0.709 -19.086524130372066 0 0 0
7 1 3 0 1.22802 2.127 -19.086524130372066 0 0 0
8 1 3 0 2.45605 2.836 -19.086524130372066 0 0 0
9 1 3 0 4.9121 0 -19.086524130372066 0 0 0
10 1 3 0 3.68407 0.709 -19.086524130372066 0 0 0
11 1 3 0 3.68407 2.127 -19.086524130372066 0 0 0
12 1 3 0 4.9121 2.836 -19.086524130372066 0 0 0
14 1 3 0 6.14012 0.709 -19.086524130372066 0 0 0
15 1 3 0 6.14012 2.127 -19.086524130372066 0 0 0
53 1 3 0 0 4.254 -19.086524130372066 0 0 0
54 1 3 0 -1.22802 4.963 -19.086524130372066 0 0 0
55 1 3 0 -1.22802 6.381 -19.086524130372066 0 0 0
56 1 3 0 0 7.09 -19.086524130372066 0 0 0
57 1 3 0 2.45605 4.254 -19.086524130372066 0 0 0
58 1 3 0 1.22802 4.963 -19.086524130372066 0 0 0
59 1 3 0 1.22802 6.381 -19.086524130372066 0 0 0
60 1 3 0 2.45605 7.09 -19.086524130372066 0 0 0
61 1 3 0 4.9121 4.254 -19.086524130372066 0 0 0
62 1 3 0 3.68407 4.963 -19.086524130372066 0 0 0
63 1 3 0 3.68407 6.381 -19.086524130372066 0 0 0
64 1 3 0 4.9121 7.09 -19.086524130372066 0 0 0
66 1 3 0 6.14012 4.963 -19.086524130372066 0 0 0
67 1 3 0 6.14012 6.381 -19.086524130372066 0 0 0
3772 981 2 0.5564 2.158858062363645 2.553845921820048 -16.233116816727218 2 -2 0
3771 981 2 0.5564 3.227888719725501 3.444321347832598 -15.636355616185991 2 -2 0
1327 166 2 0.5564 4.120811847708092 6.177097024940508 -15.705827135479595 3 2 0
1325 166 1 -1.1128 3.836919840380309 5.280233669791806 -15.88267195645789 3 2 0
2348 507 1 -1.1128 0.8488032245688438 5.458974078693643 -15.611720243976597 2 -1 0
2349 507 2 0.5564 -0.029623597125252952 5.635812457969818 -15.27507553109295 2 -1 0
1326 166 2 0.5564 3.0547153299714087 5.378739377913966 -16.4255206507982 3 2 0
1709 294 1 -1.1128 4.701413069600175 7.767866785354658 -15.625057696138883 -1 2 0
3770 981 1 -1.1128 3.0010132447962063 2.525405115940781 -15.779026297293589 2 -2 0
2298 490 2 0.5564 -0.22730541390905065 1.151948457303212 -15.261992343981897 -3 1 0
2299 490 2 0.5564 -0.8759095015227711 2.3039893176545694 -15.999563062213046 -3 1 0
2297 490 1 -1.1128 -0.09718938062803563 2.0714900615143534 -15.49382488000264 -3 1 0
2829 667 2 0.5564 5.324156763999335 -0.07144176221446202 -15.097746846585114 -1 1 0
2830 667 2 0.5564 4.3051965406053 0.6927265145443138 -15.916075859515932 -1 1 0
3085 752 2 0.5564 1.1952803083855745 7.394165259792631 -15.708946173116455 1 -2 0
2828 667 1 -1.1128 4.798417265923952 -0.12736517848489887 -15.895683722863978 -1 1 0
892 21 2 0.5564 6.590749394887676 3.5527149674242486 -16.849229285779284 0 -3 0
890 21 1 -1.1128 7.330453928460717 3.5030407539571575 -16.243751865935092 0 -3 0
13 1 3 0 7.36814 0 -19.086524130372066 0 0 0
16 1 3 0 7.36814 2.836 -19.086524130372066 0 0 0
17 1 3 0 9.82419 0 -19.086524130372066 0 0 0
18 1 3 0 8.59617 0.709 -19.086524130372066 0 0 0
19 1 3 0 8.59617 2.127 -19.086524130372066 0 0 0
20 1 3 0 9.82419 2.836 -19.086524130372066 0 0 0
21 1 3 0 12.2802 0 -19.086524130372066 0 0 0
22 1 3 0 11.0522 0.709 -19.086524130372066 0 0 0
23 1 3 0 11.0522 2.127 -19.086524130372066 0 0 0
24 1 3 0 12.2802 2.836 -19.086524130372066 0 0 0
26 1 3 0 13.5083 0.709 -19.086524130372066 0 0 0
27 1 3 0 13.5083 2.127 -19.086524130372066 0 0 0
65 1 3 0 7.36814 4.254 -19.086524130372066 0 0 0
68 1 3 0 7.36814 7.09 -19.086524130372066 0 0 0
69 1 3 0 9.82419 4.254 -19.086524130372066 0 0 0
70 1 3 0 8.59617 4.963 -19.086524130372066 0 0 0
71 1 3 0 8.59617 6.381 -19.086524130372066 0 0 0
72 1 3 0 9.82419 7.09 -19.086524130372066 0 0 0
73 1 3 0 12.2802 4.254 -19.086524130372066 0 0 0
74 1 3 0 11.0522 4.963 -19.086524130372066 0 0 0
75 1 3 0 11.0522 6.381 -19.086524130372066 0 0 0
76 1 3 0 12.2802 7.09 -19.086524130372066 0 0 0
78 1 3 0 13.5083 4.963 -19.086524130372066 0 0 0
79 1 3 0 13.5083 6.381 -19.086524130372066 0 0 0
3809 994 1 -1.1128 11.805473361048639 1.5183739073613922 -15.843720999177954 2 2 0
3811 994 2 0.5564 11.29103349114822 2.2471449372093386 -16.190819208544358 2 2 0
2210 461 1 -1.1128 9.377242516829561 6.369105052345526 -16.20807147406791 3 0 0
3012 728 2 0.5564 9.212734769018727 3.5557097864041842 -15.93654722889315 -2 0 0
3810 994 2 0.5564 11.267820979380806 0.7441993248811769 -16.010505382151774 2 2 0
2212 461 2 0.5564 9.028699690895015 7.215866787656955 -15.929238018743167 3 0 0
2020 397 2 0.5564 11.250243544098579 6.634837679095064 -16.235866839861817 -3 1 0
3013 728 2 0.5564 10.188691882318667 4.694025824441957 -16.145448749796344 -2 0 0
3011 728 1 -1.1128 10.125923577307828 3.8054083758903787 -15.795230021253534 -2 0 0
2018 397 1 -1.1128 12.042577541770953 6.633780079548547 -15.698802355208318 -3 1 0
891 21 2 0.5564 7.089688273991835 4.084494477002406 -15.52251639390709 0 -3 0
1483 218 2 0.5564 7.89064045118627 1.67990162368781 -15.369644193668272 3 1 0
2211 461 2 0.5564 8.633429677257359 5.926114556707779 -16.61640363685199 3 0 0
4966 1379 2 0.5564 13.634015909930067 7.408848803022124 -15.770225256851434 0 0 0
1441 204 2 0.5564 13.729067523539971 0.6340434010700058 -15.755384391906373 -3 1 0
4141 1104 2 0.5564 9.468210172551876 -0.21771329116143148 -15.515007214325708 0 0 0
2350 507 2 0.5564 1.2793044670590308 4.9671765064408175 -14.91240553038018 2 -1 0
3710 961 1 -1.1128 -1.6208402618088518 5.0440729677331095 -10.724956344388552 -3 0 0
4429 1200 2 0.5564 3.646668227935316 1.2495897847514787 -9.253080747446168 1 2 0
3440 871 1 -1.1128 1.3480714559713007 3.7570236621743707 -13.574057585042778 3 2 0
3441 871 2 0.5564 1.027984145871711 3.63707693605232 -12.679970882690258 3 2 0
3442 871 2 0.5564 1.0189061215249098 2.9951975617459308 -14.051031432906738 3 2 0
1638 270 2 0.5564 -0.027511694387274 4.107854545931432 -10.866001302332748 -1 2 0
2244 472 2 0.5564 4.038366138166494 3.5825791092524324 -12.451612088861133 2 0 0
3568 913 2 0.5564 2.2464303141403303 1.1457241938681944 -11.650537106600519 1 2 0
3566 913 1 -1.1128 1.482676097151354 1.007220189690876 -11.090419233063281 1 2 0
2243 472 1 -1.1128 4.254905139303757 4.495154086516254 -12.260425241099716 2 0 0
2245 472 2 0.5564 3.518869093112056 4.995375964108464 -12.612932906236368 2 0 0
3275 816 1 -1.1128 3.6143225259900795 1.6571482277871812 -13.092685682382971 -2 3 0
3567 913 2 0.5564 1.0172124444339026 1.8434404535026798 -11.108216098633603 1 2 0
3277 816 2 0.5564 3.433522987571621 2.032384416947747 -13.954511110549143 -2 3 0
2930 701 1 -1.1128 -0.658017184059292 6.974434637549565 -12.604703441166523 1 -2 0
1303 158 2 0.5564 5.59335388945212 4.6624650784312065 -13.36941688121744 -1 5 0
1639 270 2 0.5564 1.434392575407977 4.160462052423645 -10.476167987706475 -1 2 0
3276 816 2 0.5564 4.294066322916048 1.0027295147365374 -13.25367318234536 -2 3 0
1637 270 1 -1.1128 0.7947807431261478 3.6242595979900267 -10.944800060038048 -1 2 0
2932 701 2 0.5564 -1.0131430701623019 6.391808852528499 -11.933387230082632 1 -2 0
2292 488 2 0.5564 3.266559078574289 4.728251267243898 -8.773424121133116 4 1 0
2291 488 1 -1.1128 2.7835228086436334 5.326365830123986 -9.34366486923839 4 1 0
2293 488 2 0.5564 2.225390905605117 5.82700405767833 -8.74861321075795 4 1 0
2394 522 2 0.5564 1.3097824364584054 6.6327489461911435 -11.984099350022628 -1 1 0
4784 1319 1 -1.1128 1.6164831429324407 7.6173346942724764 -8.108974231629228 -2 -2 0
2395 522 2 0.5564 2.4155047971997163 6.281667753208007 -11.011462563168957 -1 1 0
2096 423 1 -1.1128 -0.18273998992807233 0.29945914488403963 -8.393357610256315 1 -1 0
3711 961 2 0.5564 -1.7280778976055706 5.549303911953164 -9.91905646557803 -3 0 0
2071 414 2 0.5564 -0.9751559796259808 1.571165424232505 -9.617197180058561 1 0 0
4428 1200 2 0.5564 5.051408688310785 0.6899375290064598 -9.32649087563925 1 2 0
887 20 1 -1.1128 6.077769213969348 0.22865025513561307 -13.200984158804511 0 1 0
4748 1307 1 -1.1128 5.395657108916335 6.616723242056173 -10.18989661678211 3 -2 0
2931 701 2 0.5564 -0.9936156525177833 6.623031672108601 -13.429398589339412 1 -2 0
4427 1200 1 -1.1128 4.135653069712856 0.4269208997769531 -9.23458817483768 1 2 0
4749 1307 2 0.5564 5.98818115800432 6.090454765771484 -9.653064216205415 3 -2 0
4188 1120 2 0.5564 5.730634732504218 3.6309647027741145 -9.117125948294452 1 -3 0
4187 1120 1 -1.1128 5.953298724623013 3.4194986384571764 -10.023733743035539 1 -3 0
4189 1120 2 0.5564 5.359196716270398 3.9563157354401786 -10.548237051897365 1 -3 0
4750 1307 2 0.5564 4.532277077005147 6.230085311523216 -10.043887603289601 3 -2 0
2098 423 2 0.5564 -0.8804035769513153 -0.13200116051871721 -7.900061315109023 1 -1 0
1176 116 2 0.5564 0.9736959915967073 1.6669956816879579 -8.141970907950043 -2 -4 0
2097 423 2 0.5564 0.2504474031800443 -0.4104450699006696 -8.867296187516889 1 -1 0
1175 116 1 -1.1128 1.4185923715204825 2.3066560658131006 -7.58597279511802 -2 -4 0
1057 76 2 0.5564 3.0546440370272405 3.0503535475193084 -7.828150254050495 0 2 0
1055 76 1 -1.1128 3.953536842404609 3.303282358290892 -8.038510236173039 0 2 0
2393 522 1 -1.1128 2.2478493554755423 6.746410691312943 -11.831303744599097 -1 1 0
4269 1147 2 0.5564 5.343956815856018 7.798007378033516 -8.24822714414828 2 -1 0
2069 414 1 -1.1128 -1.7794451865877883 1.9833223967956772 -9.932598211341288 1 0 0
2070 414 2 0.5564 -1.7031855051121623 1.959549390905646 -10.886459408476686 1 0 0
4056 1076 2 0.5564 -1.5339854392372656 0.11041187727116775 -12.93073689344007 -4 3 0
3526 899 2 0.5564 13.873505767157935 4.142197284689897 -8.131411689632749 -3 -1 0
2019 397 2 0.5564 11.7597476016362 6.282481784982939 -14.854509823342948 -3 1 0
1301 158 1 -1.1128 6.415913781256868 4.588297279167914 -13.853283296133219 -1 5 0
1302 158 2 0.5564 6.768681577527588 5.478047920991217 -13.864719632580512 -1 5 0
3033 735 2 0.5564 7.408606449991126 -0.6545923384015128 -8.855374511912407 1 5 0
888 20 2 0.5564 6.774062841005506 0.45729214487445646 -13.816719901421722 0 1 0
2487 553 2 0.5564 11.861126401034111 5.6577837181702915 -7.564586363967821 -1 -1 0
3485 886 1 -1.1128 6.517524781093966 4.814125465154739 -7.551158590772776 -6 1 0
3487 886 2 0.5564 7.214747760400049 5.069172101368376 -8.155364748675376 -6 1 0
1666 279 2 0.5564 8.043261647211489 6.202367704701514 -10.403064482474338 0 -1 0
2568 580 2 0.5564 6.440949870385515 1.6581901486589117 -10.291465829355252 -1 -1 0
2567 580 1 -1.1128 6.813484623355889 0.7808405725041759 -10.379261969827757 -1 -1 0
1890 354 2 0.5564 11.760786202994664 6.099997066202068 -10.14652021991287 0 1 0
1481 218 1 -1.1128 8.126431930508963 0.905037371227694 -14.859525627839668 3 1 0
2295 489 2 0.5564 10.667270720563616 1.9627982443069683 -12.821205864869043 0 0 0
2322 498 2 0.5564 12.30054473114956 2.148127546854454 -14.09083306070251 0 -2 0
1664 279 1 -1.1128 8.206441542299714 6.110879369984637 -9.464323714021086 0 -1 0
2294 489 1 -1.1128 9.742844758780784 1.741111821940595 -12.709275239679174 0 0 0
2364 512 2 0.5564 9.326835799366945 4.6507386331943 -12.702470199625244 1 0 0
4287 1153 2 0.5564 8.194665794986168 1.8684817629071515 -9.87184007160865 2 -1 0
4286 1153 1 -1.1128 8.722825589772622 2.6408773018394807 -9.670128866212195 2 -1 0
2363 512 1 -1.1128 8.632567503028534 4.229001540244511 -12.196147880766226 1 0 0
2365 512 2 0.5564 7.877077292619601 4.222402969272641 -12.783876542290963 1 0 0
4288 1153 2 0.5564 8.241879859639917 3.369596895303571 -10.062420222393252 2 -1 0
2445 539 2 0.5564 10.947774011392225 4.468013207726557 -13.881579066431796 1 4 0
2444 539 1 -1.1128 11.050560641269168 5.207864997261593 -13.283008856820727 1 4 0
3997 1056 2 0.5564 9.444566548763888 5.540064097403953 -8.328650930203 2 4 0
3995 1056 1 -1.1128 9.992225882395424 5.446324132668776 -7.54921905288237 2 4 0
2296 489 2 0.5564 9.346533634903778 2.5367855538771056 -12.354201341260275 0 0 0
1821 331 2 0.5564 7.842709670644529 2.2508766282578625 -7.964204787327045 -1 -4 0
2446 539 2 0.5564 11.275000510989488 4.807568054142049 -12.442995973345782 1 4 0
2321 498 1 -1.1128 12.367134855211916 2.3318729014920043 -13.153795844387359 0 -2 0
2488 553 2 0.5564 13.28717219146126 6.165001393044329 -7.596543888023415 -1 -1 0
1482 218 2 0.5564 8.634772258032163 1.2473377905274274 -14.124228902776386 3 1 0
2422 531 2 0.5564 12.28889255880728 3.74900940295601 -10.980693924841423 2 0 0
2421 531 2 0.5564 10.914518310708704 3.795369201487102 -10.347573330766313 2 0 0
2323 498 2 0.5564 13.040400599573541 1.729045512042707 -12.838283155490403 0 -2 0
2569 580 2 0.5564 6.619691228902112 0.5270233845826906 -11.281621687104877 -1 -1 0
3736 969 2 0.5564 7.203493783520278 7.723728003267535 -12.29275131957809 3 -2 0
3679 950 2 0.5564 10.845326348936622 0.5170291139751587 -11.181488017240785 -1 1 0
2420 531 1 -1.1128 11.548373080766778 4.334141612604435 -10.821056336755737 2 0 0
889 20 2 0.5564 6.2770401247921095 -0.6692965512602433 -12.936003122809177 0 1 0
3735 969 2 0.5564 8.615271373901026 7.25949128544316 -12.58130612037726 3 -2 0
1543 238 2 0.5564 11.585754108197525 1.2889344654932782 -9.460608521300607 -1 2 0
1891 354 2 0.5564 11.13662271107835 7.456944681516357 -10.393521736223684 0 1 0
1889 354 1 -1.1128 11.687425142158231 6.978600208725397 -9.773814725203172 0 1 0
4669 1280 2 0.5564 10.749420455746776 7.072621206254155 -12.73000682656783 0 0 0
1542 238 2 0.5564 11.497274947031777 2.35623773434542 -8.390592724178232 -1 2 0
1665 279 2 0.5564 8.604094230438454 6.942880733377862 -9.207655389152746 0 -1 0
1797 323 2 0.5564 12.758762734544563 -0.05321080498960376 -11.45873926641378 -2 -2 0
3677 950 1 -1.1128 11.270926818522723 -0.13731875191406054 -10.627479477979827 -1 1 0
3734 969 1 -1.1128 7.6978748775876324 7.0224114291697335 -12.71698562659412 3 -2 0
1541 238 1 -1.1128 11.980470273146734 2.114866378483563 -9.180844036683535 -1 2 0
3525 899 2 0.5564 13.836392558526057 2.657381280815904 -8.424396680498768 -3 -1 0
1796 323 1 -1.1128 13.629123846097142 0.06826676369008977 -11.838150138072749 -2 -2 0
1260 144 2 0.5564 12.238076020539202 -0.6877192334228184 -8.720616884053072 -1 1 0
3312 828 2 0.5564 -1.2274683768841184 -0.5238843507742337 -5.230958089796412 1 1 0
4740 1304 2 0.5564 -1.2433112891962805 4.040851342829681 -6.794670019300527 -1 1 0
4440 1204 2 0.5564 -1.459506321123179 6.770198210378206 -1.6567769681388727 1 -3 0
1944 372 2 0.5564 0.7056249377836333 1.4254362320244356 -3.4756724234859306 2 1 0
1060 77 2 0.5564 -1.1405136135787797 1.575886591440726 -4.3658425034727975 0 -2 0
4439 1204 1 -1.1128 -1.6511056113170324 6.597536581047139 -2.578574420564234 1 -3 0
4270 1147 2 0.5564 5.6158643991918495 6.7588905538565855 -7.181363377616063 2 -1 0
4705 1292 2 0.5564 4.00250222361063 1.6063045753737084 -0.2455106223945821 -2 -3 0
2092 421 2 0.5564 3.4733635503003844 0.25390317035230064 -2.5148009095179686 0 0 0
2330 501 1 -1.1128 3.273357236775186 5.210206963622427 -0.1259373685515594 4 2 0
3877 1016 2 0.5564 0.31431496767576456 1.23005150723266 -0.2551085563215679 -2 -3 0
1945 372 2 0.5564 1.0620156895804373 0.4989791658273381 -2.332621416269301 2 1 0
3315 829 2 0.5564 5.623949243398677 -0.24456707519363236 -1.7242361806378876 -5 1 0
4228 1133 2 0.5564 5.282180377424405 1.2716763932539745 -5.331973060386183 -2 3 0
2587 586 2 0.5564 0.537385043098073 7.068838640435294 -6.5244461869643375 -1 0 0
4739 1304 1 -1.1128 -0.2977434128828534 4.165927256352309 -6.7140751623887684 -1 1 0
1177 116 2 0.5564 0.7478132195917134 2.960150732551273 -7.387900255749069 -2 -4 0
4226 1133 1 -1.1128 4.648383708205412 1.7801149541661032 -5.837962372352699 -2 3 0
2724 632 2 0.5564 5.537602555917055 7.307535854317231 -2.3737898650361773 -1 -1 0
4741 1304 2 0.5564 -0.1970346694766931 5.087433354869855 -6.4754953758677924 -1 1 0
1943 372 1 -1.1128 1.4526586098814434 1.069517017739399 -2.994527069026941 2 1 0
2586 586 2 0.5564 0.21844412428053497 6.926424330636059 -5.051391141546387 -1 0 0
4868 1347 1 -1.1128 2.3365482001091773 0.5359875590724835 -5.6595713366198055 0 3 0
983 52 1 -1.1128 0.9994274091450532 6.5084969807669255 -1.1168212893012197 -3 -4 0
4870 1347 2 0.5564 1.7833992822493019 1.1633487416911958 -6.1250608874152634 0 3 0
4869 1347 2 0.5564 2.0289997419807255 0.5707293961976234 -4.753789399940755 0 3 0
2770 647 2 0.5564 3.9378432268686008 3.509941150758583 -1.6314034758522784 1 -1 0
1034 69 1 -1.1128 1.4769284541666896 4.715743662961343 -3.953468406161514 1 3 0
4230 1134 2 0.5564 4.304883152806977 7.560024451009456 -5.164340798774008 -2 5 0
1036 69 2 0.5564 0.7458262294024484 4.101434091245282 -3.8875495487374003 1 3 0
1035 69 2 0.5564 1.3371172489364889 5.333122870439688 -3.2354657549820147 1 3 0
3705 959 2 0.5564 3.1976276365973018 4.384828137548838 -4.537676816810987 4 0 0
1056 76 2 0.5564 4.492310532456082 2.813515978832811 -7.417153482216234 0 2 0
2146 439 2 0.5564 6.03439932058253 2.286508618173516 -2.5504556163048813 -3 0 0
3706 959 2 0.5564 4.160500672770349 3.345009787164687 -5.070175846048624 4 0 0
2145 439 2 0.5564 5.483900024459179 3.4320275824341944 -3.3730333521123725 -3 0 0
985 52 2 0.5564 1.8813595679733406 6.364028312765218 -0.7739545959250489 -3 -4 0
3704 959 1 -1.1128 4.092801445699251 4.060772656056317 -4.438245610126415 4 0 0
2768 647 1 -1.1128 3.515836553872112 2.650810892695762 -1.6252759725865842 1 -1 0
2769 647 2 0.5564 2.6862618976663137 2.7876550791677794 -2.082781777578881 1 -1 0
4441 1204 2 0.5564 -0.8375671159586754 6.808984264435414 -3.0364808408633377 1 -3 0
2585 586 1 -1.1128 -0.14780404272991152 6.7771412074523125 -5.923062247093005 -1 0 0
4227 1133 2 0.5564 3.815883169640127 1.3269160706512018 -5.704565315490633 -2 3 0
1059 77 2 0.5564 -1.0380449085807004 2.067080874850364 -2.9375134980982764 0 -2 0
4695 1289 2 0.5564 5.436099349312827 5.303194568612131 -4.553574336664587 -3 3 0
984 52 2 0.5564 1.0896422411045703 7.260652328170246 -1.7019339634242479 -3 -4 0
4694 1289 1 -1.1128 5.934160478727041 6.08751445578487 -4.783815502584689 -3 3 0
4268 1147 1 -1.1128 5.495319267319125 7.699965510292363 -7.308169016415816 2 -1 0
1058 77 1 -1.1128 -0.734273221266789 2.2538076235515447 -3.8258197994221117 0 -2 0
3635 936 1 -1.1128 0.825489124398911 -0.6540161251797372 -0.9386076031547701 -2 1 0
2090 421 1 -1.1128 3.778929333350437 -0.5725098379615261 -2.1407633546104052 0 0 0
1005 59 2 0.5564 -0.5405834220627923 6.732010972850434 -0.05111492018988211 4 1 0
4923 1365 2 0.5564 6.104998243910732 6.224706835554298 -0.058152460592708524 0 1 0
2755 642 2 0.5564 8.449243989137642 6.744147662381311 -3.804560370536925 1 2 0
989 54 1 -1.1128 12.03359536543009 4.386448235852661 -0.3650192907384883 0 0 0
1799 324 1 -1.1128 13.27610845556785 2.0942413070459955 -1.2176436073903627 -3 1 0
3858 1010 2 0.5564 11.751444064661548 0.5784102604726845 -1.7308314078180538 1 -4 0
1911 361 2 0.5564 10.036487096021563 0.39878129032415627 -3.0923148285069235 1 0 0
1910 361 1 -1.1128 9.620141932332805 0.3306003954412788 -3.9515240262093414 1 0 0
3857 1010 1 -1.1128 10.894154541527111 0.18857655042364901 -1.5596093591854217 1 -4 0
3486 886 2 0.5564 6.922514654376626 4.162643617922447 -6.978630962922538 -6 1 0
3996 1056 2 0.5564 9.608391923295173 6.049031834293285 -6.912314611573115 2 4 0
1822 331 2 0.5564 7.399408789068255 1.0077288356602847 -7.222608247959903 -1 -4 0
2486 553 1 -1.1128 12.75163042532164 5.430258159461613 -7.297244175743837 -1 -1 0
1820 331 1 -1.1128 7.66007537237263 1.9184684536992485 -7.085351728487416 -1 -4 0
2802 658 2 0.5564 7.836894051081689 7.349703203131553 -6.264010101935536 1 2 0
991 54 2 0.5564 12.543753232037782 3.6506500535402218 -0.7035109708551731 0 0 0
2463 545 2 0.5564 11.881048745626787 1.9707687234007185 -5.310565514997117 -1 -1 0
3340 837 2 0.5564 6.554534736681792 4.705808702243895 -1.995940656955283 -4 0 0
2144 439 1 -1.1128 6.260623440767512 3.153139505762019 -2.888103689407659 -3 0 0
3314 829 1 -1.1128 6.382131467547973 0.3328594881322819 -1.8135261710045505 -5 1 0
3339 837 2 0.5564 7.641759867840425 5.191919456188413 -1.0613107249135438 -4 0 0
4597 1256 2 0.5564 6.490399877702311 0.2287808638347029 -3.6450348733670532 3 -2 0
3338 837 1 -1.1128 6.844539447204099 5.4766141669935795 -1.5081000610679869 -4 0 0
2754 642 2 0.5564 7.6861335117863305 6.816270017341718 -2.499049870297286 1 2 0
2111 428 1 -1.1128 8.280330931847828 4.170156646491168 -4.731042889179905 1 2 0
1007 60 1 -1.1128 13.281108231811606 5.865053726755285 -4.724830087100001 -3 -2 0
2462 545 1 -1.1128 12.11598981797307 1.6358688274028685 -4.445187893055473 -1 -1 0
1912 361 2 0.5564 10.277111726030709 0.662331539084119 -4.563551151380568 1 0 0
4696 1289 2 0.5564 6.784567412582921 5.755796114826501 -5.071919152127587 -3 3 0
3316 829 2 0.5564 6.8967232928502185 0.17747941470901302 -1.0215123291156267 -5 1 0
4559 1244 1 -1.1128 10.769737090235784 2.837219413318453 -6.784674886950821 8 -1 0
2113 428 2 0.5564 9.129126174843567 4.160153741178178 -4.288686466557579 1 2 0
2274 482 2 0.5564 10.753790095474365 6.2457647012294615 -1.1190924676654908 1 3 0
2464 545 2 0.5564 12.934500103044181 1.1600360410074588 -4.586100211893287 -1 -1 0
2753 642 1 -1.1128 8.422100071227767 7.209151140480509 -2.9683378219825713 1 2 0
4595 1256 1 -1.1128 6.596286573011879 0.044434575763116074 -4.578328650990977 3 -2 0
4560 1244 2 0.5564 10.641815090538465 3.7771262897978777 -6.912925170208947 8 -1 0
4596 1256 2 0.5564 7.485890059234869 0.3340366261157244 -4.780735739427399 3 -2 0
2112 428 2 0.5564 7.780343955228108 3.4728717385317847 -4.306732193774086 1 2 0
2275 482 2 0.5564 9.97193019683063 7.222801457964957 -1.9711438070069693 1 3 0
2273 482 1 -1.1128 10.746438980510723 7.156839779203203 -1.4125555334022968 1 3 0
2801 658 1 -1.1128 8.75413975343019 7.246273789120185 -6.010642425501749 1 2 0
1801 324 2 0.5564 13.815351167439399 1.5936889693143501 -1.829932627494465 -3 1 0
1009 60 2 0.5564 12.733156281670142 5.671448966387139 -3.9642392397232262 -3 -2 0
4561 1244 2 0.5564 9.915608494700358 2.450322746760774 -6.977053446511596 8 -1 0
1008 60 2 0.5564 12.751343679537804 5.598785940473741 -5.476286431296136 -3 -2 0
3250 807 2 0.5564 11.572452255218108 3.480332282493876 -3.5321257801157993 -1 0 0
3248 807 1 -1.1128 11.098751606879919 4.289941062970722 -3.34140526386784 -1 0 0
3249 807 2 0.5564 10.98243948984899 4.281813637577914 -2.3913329038876014 -1 0 0
1800 324 2 0.5564 13.370549515032542 1.6344628451334329 -0.3834239762138602 -3 1 0
2676 616 2 0.5564 9.437661149597687 4.001512597988404 -0.01519471244054817 2 0 0
3800 991 1 -1.1128 3.3823174021332503 1.818865093433478 5.466790755352173 -2 0 0
3801 991 2 0.5564 4.129026699248385 2.022258046745189 4.90350611419348 -2 0 0
1004 59 1 -1.1128 -1.3343627314781572 6.758407242243735 0.48316005457261313 4 1 0
1396 189 2 0.5564 3.9885765317516926 0.1106170490498489 5.116888103578588 1 -1 0
3405 859 2 0.5564 -1.8312196347962484 2.628731316840419 6.694051459656826 0 0 0
4095 1089 2 0.5564 1.6033158700107817 2.9897863692164317 3.3245069550280686 2 1 0
2056 409 2 0.5564 0.44726238569282506 3.4821922556450056 5.930370918323547 -4 0 0
4094 1089 1 -1.1128 1.3195423339416932 3.1335561759560093 4.227300255180004 2 1 0
4096 1089 2 0.5564 1.499346225135398 4.05938703927416 4.390827808048332 2 1 0
2054 409 1 -1.1128 0.039656475354765325 3.3290632716100212 6.782803645884153 -4 0 0
3802 991 2 0.5564 2.6485834474055676 2.2901326749566318 5.072109292027283 -2 0 0
3683 952 1 -1.1128 2.401547760460259 2.9430282157727836 1.699099224582662 0 0 0
2651 608 1 -1.1128 -0.3080120275999368 -0.4815042405552295 2.2899447718299863 1 -2 0
2055 409 2 0.5564 -0.1477494415922354 4.205068734080171 7.1200386416635775 -4 0 0
4925 1366 1 -1.1128 -0.7408719287425172 7.583340379068749 4.773320445120113 0 -3 0
1378 183 2 0.5564 -1.2256123568118957 2.5237228764378252 3.2483288329277853 3 0 0
3684 952 2 0.5564 3.058689641342198 2.247982374637115 1.6629314555432642 0 0 0
1572 248 2 0.5564 -0.2850944348965009 -0.4780739366249895 6.83251217235015 4 2 0
4922 1365 1 -1.1128 5.713567773651943 6.203257167558127 0.8150921916664249 0 1 0
1986 386 2 0.5564 5.648985883004545 1.0424355518922814 3.649718390004145 1 4 0
1985 386 1 -1.1128 5.578782386681533 1.9095832464672622 4.048916348924695 1 4 0
4924 1365 2 0.5564 6.083870819624327 6.963943679307829 1.2628244507226507 0 1 0
953 42 1 -1.1128 1.674841973461826 5.738160766817679 4.62203600304287 -4 1 0
954 42 2 0.5564 1.9987122290194776 6.275531390462231 3.8991397162881594 -4 1 0
2332 501 2 0.5564 3.268069663137709 4.554696599985424 0.5715679081687767 4 2 0
3685 952 2 0.5564 1.6185176800276837 2.553446274153636 1.3100974484503731 0 0 0
955 42 2 0.5564 0.8169119632954828 6.108010622685611 4.830365851920945 -4 1 0
4926 1366 2 0.5564 -1.2034346692283437 6.762487203507125 4.604586697223864 0 -3 0
1863 345 2 0.5564 4.204512531891012 -0.6295456769714 0.7852010137897347 -3 5 0
1006 59 2 0.5564 -1.6693235689563168 5.862033739029273 0.4597478592588509 4 1 0
4704 1292 2 0.5564 5.2597701881575345 1.5893507871614125 0.5976296179952837 -2 -3 0
3141 771 2 0.5564 5.472594202029026 5.495704841345275 4.56750899818691 4 0 0
2653 608 2 0.5564 0.15455448090881987 0.2842303471427176 1.9494807870753303 1 -2 0
3140 771 1 -1.1128 6.1064958066106465 6.0772066693471425 4.147679398149199 4 0 0
4000 1057 2 0.5564 1.7772357074838823 7.572906503339195 2.0343098870446013 -1 0 0
3142 771 2 0.5564 5.571185974696302 6.728200251799033 3.6939353820472296 4 0 0
4703 1292 1 -1.1128 4.356512546201086 1.2731030687748361 0.5790411815997356 -2 -3 0
4177 1116 2 0.5564 5.869069462592598 5.716775139040993 7.078852492268468 1 -1 0
3108 760 2 0.5564 4.123527331366491 1.9529266017770552 7.423025333769988 -1 -4 0
2331 501 2 0.5564 4.057646256014223 5.732717663528055 0.04172660062518713 4 2 0
2431 534 2 0.5564 4.316056348724397 4.1637863935411215 6.755538037440459 2 1 0
3875 1016 1 -1.1128 0.3703931496572398 1.8239690163655682 0.49345659274223436 -2 -3 0
2429 534 1 -1.1128 4.4210030686242305 5.005759190087295 6.312479871849339 2 1 0
3998 1057 1 -1.1128 2.438967743404958 6.921863809628745 2.267736131869723 -1 0 0
3999 1057 2 0.5564 2.6088751518309268 6.449502588479004 1.4527276558371973 -1 0 0
2430 534 2 0.5564 3.5392544513958955 5.2333060530894855 6.017566439310653 2 1 0
1394 189 1 -1.1128 4.298800322408593 -0.6873118805852759 4.688744650630714 1 -1 0
2673 615 2 0.5564 -1.7477643973053638 0.18986159783463255 1.394279595671053 2 -1 0
2283 485 2 0.5564 -1.7667879198479888 -0.5012158807780062 4.974949051317703 -1 0 0
3876 1016 2 0.5564 -0.20657590141694462 2.552847478456702 0.2652567975127472 -2 -3 0
1151 108 1 -1.1128 8.709171396834758 -0.47767932699248816 3.3935312052714934 -4 3 0
2960 711 1 -1.1128 6.96260069728392 1.9080597122968503 0.6860139827468253 -6 4 0
2962 711 2 0.5564 7.315483981074089 2.4907980037083233 1.3584148107923708 -6 4 0
2675 616 1 -1.1128 9.109457388283575 4.875479407972951 0.19622676164797592 2 0 0
2961 711 2 0.5564 7.735436434253536 1.545808545347667 0.2527339017675644 -6 4 0
1465 212 2 0.5564 6.928517550355571 0.9570835160493208 7.12170100413933 -2 2 0
1018 63 2 0.5564 10.03470381999308 1.9071881354331615 1.5126661362793998 -2 0 0
2089 420 2 0.5564 13.135644434768682 5.96470909061691 5.43916880178565 -4 -1 0
2255 476 1 -1.1128 13.946259849121331 0.9901370365191472 1.3246831854710217 5 -1 0
1016 63 1 -1.1128 9.855051669562174 2.0496734196746837 0.5833357146382143 -2 0 0
3860 1011 1 -1.1128 12.113441336633837 2.1174471679468483 3.233091031411181 -3 -4 0
3862 1011 2 0.5564 12.060641660620917 1.344242807581822 2.671305885480232 -3 -4 0
4987 1386 2 0.5564 7.125356489105128 4.710736924121351 3.1470262695339883 2 1 0
1987 386 2 0.5564 6.478628548986258 2.2348020555701034 4.076157677309832 1 4 0
3662 945 1 -1.1128 11.515250981652462 1.2002781583735878 5.777110945229829 -4 1 0
3664 945 2 0.5564 12.294964771765176 1.4841577044557972 6.254280811611436 -4 1 0
4529 1234 1 -1.1128 11.85769114046406 4.634211048342522 2.509215795991471 2 2 0
4531 1234 2 0.5564 11.99261919454869 3.7498733721410615 2.8497738609468763 2 2 0
4530 1234 2 0.5564 11.263435221262984 5.045105269147065 3.137115766801059 2 2 0
2079 417 2 0.5564 8.402868783519727 2.9983279220939436 3.635997074021756 3 1 0
2078 417 1 -1.1128 8.527908278813104 2.081539341304822 3.881148775854253 3 1 0
2080 417 2 0.5564 8.68311361812408 2.1046361922094836 4.825400593681204 3 1 0
990 54 2 0.5564 12.108585057373878 4.312952750171395 0.586405054168234 0 0 0
4986 1386 2 0.5564 7.592532441639463 4.707057954827867 1.7070160039319071 2 1 0
2087 420 1 -1.1128 12.289479202826698 6.368821106188298 5.631349465921241 -4 -1 0
3861 1011 2 0.5564 11.847281940868587 1.8045430580784265 4.09766568095826 -3 -4 0
4936 1369 2 0.5564 10.94598531031291 6.836324224902928 4.513131282445473 -1 -1 0
1114 95 2 0.5564 10.767539124528406 -0.5111881409557902 6.472234065773362 0 3 0
4043 1072 1 -1.1128 14.015810658473411 6.519867462847515 0.8136484568280069 3 -2 0
4985 1386 1 -1.1128 7.463781211449253 4.1335622955847064 2.4625026458924473 2 1 0
2129 434 1 -1.1128 11.33090735861679 -0.46514450412310077 2.0353798116955777 -1 1 0
2807 660 1 -1.1128 9.403550851428452 2.426131411356027 6.791221540219008 -1 0 0
2808 660 2 0.5564 8.74935873505415 2.159275466644956 7.437018287477907 -1 0 0
3663 945 2 0.5564 10.794635885538476 1.6759964469133286 6.190195224166252 -4 1 0
3768 980 2 0.5564 7.274068503586248 7.16824384508857 5.08315687820189 6 1 0
4934 1369 1 -1.1128 10.199255563816578 6.993536374709386 3.935275462779984 -1 -1 0
4045 1072 2 0.5564 13.726625653160307 5.806676534660784 0.2444708506879939 3 -2 0
2950 707 2 0.5564 13.775722584600928 2.5154637186836997 3.3514556133541675 -2 3 0