LAMMPS data file via write_data, version 2 Aug 2023, timestep = 6000000, units = real

5032 atoms
4 atom types
2800 bonds
1 bond types
1400 angles
1 angle types
0 impropers
1 improper types

-1.8420299999999998 30.08661 xlo xhi
-0.709 33.323 ylo yhi
-150 150 zlo zhi

Masses

1 15.9994
2 1.00794
3 12.0107
4 12.0107

Pair Coeffs # lj/cut/tip4p/long

1 0.1852 3.1589
2 0 0
3 0.0859 3.3997
4 0.0859 3.3997

Bond Coeffs # harmonic

1 5000 0.9572

Angle Coeffs # harmonic

1 500 104.52

Atoms # full

1 1 3 0 0 0 -19.086524130372066 0 0 0
2 1 3 0 -1.22802 0.709 -19.086524130372066 0 0 0
3 1 3 0 -1.22802 2.127 -19.086524130372066 0 0 0
4 1 3 0 0 2.836 -19.086524130372066 0 0 0
5 1 3 0 2.45605 0 -19.086524130372066 0 0 0
6 1 3 0 1.22802 0.709 -19.086524130372066 0 0 0
7 1 3 0 1.22802 2.127 -19.086524130372066 0 0 0
8 1 3 0 2.45605 2.836 -19.086524130372066 0 0 0
9 1 3 0 4.9121 0 -19.086524130372066 0 0 0
10 1 3 0 3.68407 0.709 -19.086524130372066 0 0 0
11 1 3 0 3.68407 2.127 -19.086524130372066 0 0 0
12 1 3 0 4.9121 2.836 -19.086524130372066 0 0 0
14 1 3 0 6.14012 0.709 -19.086524130372066 0 0 0
15 1 3 0 6.14012 2.127 -19.086524130372066 0 0 0
53 1 3 0 0 4.254 -19.086524130372066 0 0 0
54 1 3 0 -1.22802 4.963 -19.086524130372066 0 0 0
55 1 3 0 -1.22802 6.381 -19.086524130372066 0 0 0
56 1 3 0 0 7.09 -19.086524130372066 0 0 0
57 1 3 0 2.45605 4.254 -19.086524130372066 0 0 0
58 1 3 0 1.22802 4.963 -19.086524130372066 0 0 0
59 1 3 0 1.22802 6.381 -19.086524130372066 0 0 0
60 1 3 0 2.45605 7.09 -19.086524130372066 0 0 0
61 1 3 0 4.9121 4.254 -19.086524130372066 0 0 0
62 1 3 0 3.68407 4.963 -19.086524130372066 0 0 0
63 1 3 0 3.68407 6.381 -19.086524130372066 0 0 0
64 1 3 0 4.9121 7.09 -19.086524130372066 0 0 0
66 1 3 0 6.14012 4.963 -19.086524130372066 0 0 0
67 1 3 0 6.14012 6.381 -19.086524130372066 0 0 0
4487 1220 1 -1.1128 2.6373753790545233 0.01863657000209643 -15.569779706246527 3 -1 0
2898 690 2 0.5564 4.767244595016313 6.737403565091067 -13.965515407221606 0 -3 0
4907 1360 1 -1.1128 0.020463749012041385 1.4858158995678223 -15.069454231104624 2 1 0
4908 1360 2 0.5564 -0.28300457573824916 1.951331150623045 -14.29007221097377 2 1 0
2897 690 1 -1.1128 4.498392791212064 6.875118154009252 -14.873804502078777 0 -3 0
2899 690 2 0.5564 5.250305141436581 7.301896917838288 -15.284570029393576 0 -3 0
4489 1220 2 0.5564 1.861975164028715 0.5776560649943361 -15.619618436282055 3 -1 0
4594 1255 2 0.5564 5.855798044806044 1.2562871168081344 -15.781802801048926 3 0 0
4488 1220 2 0.5564 3.373390131798508 0.6303193444579359 -15.550691833465732 3 -1 0
4909 1360 2 0.5564 -0.5712508752305001 0.7374872874347282 -15.14762271759089 2 1 0
1458 210 2 0.5564 1.379840177187231 2.9199921200960235 -15.179017972950675 0 0 0
1457 210 1 -1.1128 2.0551622039371233 3.5849071781523167 -15.044629616047569 0 0 0
3378 850 2 0.5564 -0.8418982616365669 -0.40585333828958714 -3.543464728751916 3 -3 0
1459 210 2 0.5564 2.2079957485658026 3.5841812027915902 -14.099709110832737 0 0 0
2368 513 2 0.5564 11.278078930277983 1.3923399182900902 -7.791194150967278 1 1 0
13 1 3 0 7.36814 0 -19.086524130372066 0 0 0
16 1 3 0 7.36814 2.836 -19.086524130372066 0 0 0
17 1 3 0 9.82419 0 -19.086524130372066 0 0 0
18 1 3 0 8.59617 0.709 -19.086524130372066 0 0 0
19 1 3 0 8.59617 2.127 -19.086524130372066 0 0 0
20 1 3 0 9.82419 2.836 -19.086524130372066 0 0 0
21 1 3 0 12.2802 0 -19.086524130372066 0 0 0
22 1 3 0 11.0522 0.709 -19.086524130372066 0 0 0
23 1 3 0 11.0522 2.127 -19.086524130372066 0 0 0
24 1 3 0 12.2802 2.836 -19.086524130372066 0 0 0
26 1 3 0 13.5083 0.709 -19.086524130372066 0 0 0
27 1 3 0 13.5083 2.127 -19.086524130372066 0 0 0
65 1 3 0 7.36814 4.254 -19.086524130372066 0 0 0
68 1 3 0 7.36814 7.09 -19.086524130372066 0 0 0
69 1 3 0 9.82419 4.254 -19.086524130372066 0 0 0
70 1 3 0 8.59617 4.963 -19.086524130372066 0 0 0
71 1 3 0 8.59617 6.381 -19.086524130372066 0 0 0
72 1 3 0 9.82419 7.09 -19.086524130372066 0 0 0
73 1 3 0 12.2802 4.254 -19.086524130372066 0 0 0
74 1 3 0 11.0522 4.963 -19.086524130372066 0 0 0
75 1 3 0 11.0522 6.381 -19.086524130372066 0 0 0
76 1 3 0 12.2802 7.09 -19.086524130372066 0 0 0
78 1 3 0 13.5083 4.963 -19.086524130372066 0 0 0
79 1 3 0 13.5083 6.381 -19.086524130372066 0 0 0
1901 358 1 -1.1128 11.11624026125896 5.608276646862609 -14.254874013842798 -3 2 0
1902 358 2 0.5564 11.151865496187428 6.287231686289314 -14.928656354141445 -3 2 0
3498 890 2 0.5564 9.654550840936091 3.460630696347757 -16.089137871797995 0 0 0
3497 890 1 -1.1128 10.595933877162443 3.48950538706424 -15.918271249682883 0 0 0
3499 890 2 0.5564 10.697140243308668 4.162510617904159 -15.245178936456956 0 0 0
4890 1354 2 0.5564 6.78987774338585 3.7089455899855595 -16.076748441807137 6 1 0
2165 446 1 -1.1128 7.524530059171736 0.7141716428297015 -15.563464830442054 -3 -3 0
1903 358 2 0.5564 10.960280648212265 6.086370998746362 -13.440420691856747 -3 2 0
2167 446 2 0.5564 7.6997077470931625 1.6366038522971489 -15.749646403853111 -3 -3 0
4889 1354 1 -1.1128 7.600555510201167 3.3963179260032192 -15.675129473795439 6 1 0
2166 446 2 0.5564 7.492225128027629 0.6640984742925939 -14.608121412053602 -3 -3 0
3659 944 1 -1.1128 13.384157272454003 5.487146115220432 -0.8575084988134585 4 -2 0
2426 533 1 -1.1128 11.970196131832841 1.6828489965326219 -0.06134464413445639 0 1 0
2032 401 2 0.5564 11.828072513984456 1.720969144525068 -15.501890898674041 1 4 0
2422 531 2 0.5564 -1.545761907197002 0.4143903501803216 -11.156279757515865 3 1 0
2030 401 1 -1.1128 12.04924297083642 0.8100522533690699 -15.308122439127223 1 4 0
4463 1212 1 -1.1128 12.882104216029731 1.8092187695160822 -7.224777566561374 3 4 0
4593 1255 2 0.5564 4.879764966806399 2.400483710017137 -15.60839059529379 3 0 0
2658 610 2 0.5564 3.5822060842524133 4.066485635111047 -15.778382422175822 1 1 0
2657 610 1 -1.1128 4.5262194661985005 4.185060066808596 -15.883345345577776 1 1 0
2659 610 2 0.5564 4.629719657721618 5.113439277391395 -16.092230108021056 1 1 0
972 48 2 0.5564 10.88047191123141 -0.3816260486214702 -10.376303535730965 -3 0 0
4592 1255 1 -1.1128 4.94416612683586 1.4466470886162768 -15.560616162348438 3 0 0
1874 349 1 -1.1128 3.303610140097556 1.8412764504627075 -10.150442031206723 -1 -1 0
1875 349 2 0.5564 4.237676091877285 1.7862781982594271 -9.948627881077195 -1 -1 0
4481 1218 1 -1.1128 -0.4300626538887576 5.6749066871680105 -12.08384296154126 -1 3 0
4482 1218 2 0.5564 -0.5391987020765489 6.149147338250844 -11.259574600325504 -1 3 0
1937 370 1 -1.1128 11.60669578724847 7.707035552646486 -10.2749243149556 -1 1 0
1568 247 1 -1.1128 1.4770728156830124 0.37080408766650996 -12.257516525436632 -2 1 0
2390 521 1 -1.1128 2.869443978085169 6.567301378288477 -11.08330374347813 1 2 0
2391 521 2 0.5564 2.218974868214498 5.879220644039935 -11.223544399348576 1 2 0
2928 700 2 0.5564 -0.46074988787473675 2.278218254938259 -7.8832031832597025 4 -1 0
2392 521 2 0.5564 2.521653887706568 7.081419454742547 -10.354634527218021 1 2 0
2214 462 2 0.5564 4.085494941978867 0.5220757936229821 -0.19019155471834143 -3 1 0
2213 462 1 -1.1128 4.336997143198573 1.4453872201051323 -0.21204430927563628 -3 1 0
4220 1131 1 -1.1128 -1.1910068282895798 7.222367745246118 -9.933163738700573 -1 -3 0
3342 838 2 0.5564 8.916277161452895 -0.5042609578999567 -15.99463454601691 0 -2 0
2859 677 2 0.5564 11.305600579997206 7.209269111647373 -1.119652286180214 0 3 0
2237 470 1 -1.1128 8.976730871420882 7.169458448125159 -3.633259904232031 2 0 0
2902 691 2 0.5564 0.7647232111033192 5.299240375542667 -8.218004354210201 0 3 0
2900 691 1 -1.1128 1.5044079857276558 5.756145787864381 -7.817583477162854 0 3 0
2901 691 2 0.5564 2.152352390280745 5.069941101059197 -7.657822354321552 0 3 0
3351 841 2 0.5564 4.373488256577767 6.172607105813529 -11.859320914795083 1 0 0
2676 616 2 0.5564 8.644595001151204 0.01713398491795251 -10.263174874700683 2 1 0
2216 463 1 -1.1128 -0.4143528977620389 3.028035442579849 -12.95808903186914 2 -2 0
1004 59 1 -1.1128 6.002027301104571 1.8136804408194251 -3.206990121369022 4 1 0
2511 561 2 0.5564 6.817103072181749 1.5964824536992328 -9.969056063005803 1 3 0
3145 772 2 0.5564 -0.05064961987495688 6.8438361106463415 -15.727613643255431 0 -2 0
2512 561 2 0.5564 6.1930563139670305 2.2446684618459747 -8.751552481724872 1 3 0
2510 561 1 -1.1128 6.180687647961739 2.2623082684153775 -9.708510286914626 1 3 0
2180 451 1 -1.1128 2.869830769648476 3.734622231753328 -12.346348551695764 3 1 0
1395 189 2 0.5564 2.0171644971252225 6.447835931786448 -1.1659572834643777 0 -1 0
3352 841 2 0.5564 5.423352684433058 5.152041409520897 -12.244192378064616 1 0 0
3350 841 1 -1.1128 5.1606674429736605 6.060505451511295 -12.392251167787842 1 0 0
2182 451 2 0.5564 3.6380596825763862 3.507942005049821 -12.870441059789936 3 1 0
4025 1066 1 -1.1128 3.842673484437119 4.783468100780212 -6.403225168995706 1 1 0
4026 1066 2 0.5564 3.7135679457864765 5.264640495353708 -5.585889082479854 1 1 0
4027 1066 2 0.5564 4.514091937567628 5.2803283833319234 -6.870728105021114 1 1 0
2217 463 2 0.5564 -0.7819997838642807 3.4136604281181206 -13.7533010480751 2 -2 0
1759 310 2 0.5564 6.879600468802874 3.3760462955700947 -12.689407256078782 3 -3 0
1757 310 1 -1.1128 5.971842447122022 3.2955332834623245 -12.396616678291261 3 -3 0
1758 310 2 0.5564 6.031984132117099 3.2302471568206137 -11.443540533505567 3 -3 0
2132 435 1 -1.1128 0.7871524824340647 2.832048680195356 -9.793570514940676 -1 0 0
2218 463 2 0.5564 -0.24038917774102334 3.776145394538181 -12.386861241216794 2 -2 0
2181 451 2 0.5564 3.007034869727227 3.2850833742320407 -11.51248845240778 3 1 0
2428 533 2 0.5564 11.9190164443404 0.7290590938734708 -0.12378202134836744 0 1 0
863 12 1 -1.1128 1.192721689943614 0.7746548203334742 -0.15725189086650734 1 -2 0
2133 435 2 0.5564 1.62579087647008 2.3907950525504695 -9.658607270778917 -1 0 0
2111 428 1 -1.1128 11.07352062390298 7.55861681006761 -16.125137248213786 1 2 0
2134 435 2 0.5564 0.34186052487833496 2.30371672078674 -10.456000063949077 -1 0 0
4483 1218 2 0.5564 -0.4662285325552803 6.353634320098791 -12.757825599763104 -1 3 0
2031 401 2 0.5564 11.33182018658667 0.3028747305320904 -15.68800149775002 1 4 0
938 37 1 -1.1128 0.32109366898579456 6.528680334730346 -0.27707409416898554 3 4 0
1897 356 2 0.5564 9.57341090151913 3.1559745663986973 -4.819821539774498 -2 0 0
2326 499 2 0.5564 8.087200129265424 3.5612098783234383 -9.60984024155314 -2 1 0
2367 513 2 0.5564 10.535480660138962 0.3825988904817519 -8.640236793746444 1 1 0
4465 1212 2 0.5564 12.927028134248799 2.726774072422525 -7.49367585949126 3 4 0
2324 499 1 -1.1128 8.5346191718959 4.400470050445758 -9.71796271448243 -2 1 0
2366 513 1 -1.1128 10.396233953816619 1.1099590704781797 -8.033779519396157 1 1 0
3987 1053 2 0.5564 13.343885843109202 2.603433582171041 -10.80532243319549 2 0 0
3533 902 1 -1.1128 9.933252441728715 1.9550412014692025 -12.363478153520283 -2 -3 0
2325 499 2 0.5564 8.612511142370742 4.747161944708795 -8.829160489753002 -2 1 0
3988 1053 2 0.5564 11.931934193891369 2.1035951332314067 -10.585210496476957 2 0 0
3535 902 2 0.5564 9.17620561300982 1.5917670863177198 -11.903972974680569 -2 -3 0
1302 158 2 0.5564 9.107224672223744 3.51467445424603 -12.981679104263954 -2 5 0
1303 158 2 0.5564 9.070723236962246 5.025334280368014 -13.073707274162205 -2 5 0
4891 1354 2 0.5564 7.61092371319943 3.8020677756941192 -14.80824250889024 6 1 0
1452 208 2 0.5564 6.450878259498121 5.4235962394888455 -9.292348642924164 -1 1 0
1451 208 1 -1.1128 6.0443801770463415 5.527504679185963 -8.43200323933111 -1 1 0
1423 198 2 0.5564 5.55084345193175 7.224101046100889 -8.663342457996201 -1 0 0
3248 807 1 -1.1128 8.435031560441558 5.229165893259934 -7.179990784364543 0 1 0
1453 208 2 0.5564 6.74919949515697 5.346568022153473 -7.810131982816376 -1 1 0
1301 158 1 -1.1128 8.505648768115153 4.252748988678805 -13.07957631383016 -2 5 0
3763 978 2 0.5564 9.949103873877155 -0.30434607038565686 -7.0112930096569235 4 -2 0
3534 902 2 0.5564 10.55354075077285 1.227933756436148 -12.416289615317561 -2 -3 0
2104 425 2 0.5564 12.577197039600577 0.49282955671904977 -11.90935233997602 5 1 0
1767 313 2 0.5564 13.551469401878423 0.9680776343669413 -14.128163126505795 1 1 0
4841 1338 1 -1.1128 13.215964994583247 3.9229639704880634 -15.985689235344184 2 0 0
3529 900 2 0.5564 12.552680299119563 4.6016503491224405 -12.297770440061262 1 2 0
3986 1053 1 -1.1128 12.849029288659434 1.8426485822975684 -10.501091309916202 2 0 0
4497 1223 2 0.5564 8.081941094936694 1.6884739461515292 -5.780382950965768 -4 -1 0
2714 629 1 -1.1128 10.037489147035968 6.095700055682514 -11.57128275314936 3 2 0
4843 1338 2 0.5564 12.272989369278905 3.759780866010125 -16.005757512138885 2 0 0
4464 1212 2 0.5564 12.763882968283932 1.8428457276472097 -6.2755016019151295 3 4 0
3830 1001 1 -1.1128 6.571953744884712 1.5487448672089885 -7.26589546990761 2 1 0
2716 629 2 0.5564 10.543758921511085 6.605556519196127 -10.938851214821371 3 2 0
4313 1162 1 -1.1128 12.219318555023216 4.931594892657501 -3.9042265340337203 3 2 0
3084 752 2 0.5564 14.088489239852677 4.656917825696415 -6.861913049731494 1 -3 0
3527 900 1 -1.1128 13.260855344782772 4.01950519286256 -12.57313754361301 1 2 0
3085 752 2 0.5564 12.765204819920408 5.32597507517097 -7.167164413201388 1 -3 0
3439 870 2 0.5564 4.64337018235545 7.095849343557713 -3.875409097551709 0 3 0
1579 250 2 0.5564 11.980771278400447 2.0508161396111264 -3.652887465615856 1 0 0
2112 428 2 0.5564 11.211699566183567 7.559005636654157 -17.07231063925901 1 2 0
2715 629 2 0.5564 9.604306706820312 5.423215162997457 -11.045593641201288 3 2 0
3144 772 2 0.5564 -1.3522642146845845 6.246193407235194 -15.237185935761502 0 -2 0
2677 616 2 0.5564 7.709835005549041 0.04981982061517921 -11.45357423841757 2 1 0
3074 749 1 -1.1128 0.8304285321496946 0.010346015668374295 -5.902786060557578 1 -1 0
2238 470 2 0.5564 8.07794298429919 7.400104854547891 -3.3982786572586976 2 0 0
3596 923 1 -1.1128 9.973961460292989 -0.5571977976089825 -2.6767836918720898 0 1 0
1570 247 2 0.5564 0.6397783954546901 0.6619657956000213 -11.896413903310592 -2 1 0
856 9 2 0.5564 -1.6066673291842897 4.277350659040022 -8.89017580017685 2 1 0
4383 1185 2 0.5564 5.8788199141868285 7.3965757320055605 -11.636155170024628 6 -2 0
2421 531 2 0.5564 -1.1556283221465353 1.738707893393781 -11.777470384688941 3 1 0
1578 250 2 0.5564 13.47355070765362 2.24271451481853 -3.816227289578726 1 0 0
1642 271 2 0.5564 8.222075231949205 4.426641654382608 -0.15382315742516045 -1 1 0
2723 632 1 -1.1128 1.6064966709590587 2.6320847351518077 -5.226562983724849 -1 -1 0
2724 632 2 0.5564 2.516101904953539 2.341402729336882 -5.160548992080642 -1 -1 0
2860 677 2 0.5564 10.546370370978819 6.117558973431835 -0.39602701801886175 0 3 0
2929 700 2 0.5564 -1.312661052199553 2.339673087024845 -6.633255823821472 4 -1 0
3831 1001 2 0.5564 6.660279922658683 0.6077866128583241 -7.417648080431844 2 1 0
3870 1014 2 0.5564 13.929971894515807 4.4831558057991465 -9.117052122553268 -1 -1 0
3661 944 2 0.5564 13.709758721739439 6.251619488603954 -1.3326889996246358 4 -2 0
3075 749 2 0.5564 0.28632959138833436 0.5169825046307734 -6.505701945563827 1 -1 0
3541 904 2 0.5564 13.756830060083177 -0.3294853343327569 -4.963282100216956 -1 2 0
3205 792 2 0.5564 1.9714158952701197 3.333378318205654 -1.6887918311843295 -2 -1 0
4501 1224 2 0.5564 -0.9040531291867384 6.654563696064687 -1.8027716214750558 0 -1 0
2725 632 2 0.5564 1.1311852553931407 1.8633897385991514 -5.541870985490627 -1 -1 0
4733 1302 1 -1.1128 0.6789956743257849 5.151143201731118 -5.254917591063462 -5 0 0
3388 853 2 0.5564 1.9460722872785676 1.81146959099966 -2.8502577289330806 -1 3 0
2927 700 1 -1.1128 -0.8856259172212864 1.7238064915140305 -7.228725316630743 4 -1 0
3438 870 2 0.5564 3.3992853083987793 6.416503676219955 -3.343772429545742 0 3 0
4008 1060 2 0.5564 4.445536280956559 3.9357328506678857 -2.072762734543665 3 3 0
2489 554 1 -1.1128 9.302476337656431 7.673790668914629 -6.513898412389734 -1 0 0
3389 854 1 -1.1128 0.21867637531345252 3.442561754748856 -1.9145531432539322 -4 2 0
3929 1034 1 -1.1128 -1.2759558903107158 1.4468866856256675 -2.9172437445553463 1 -4 0
3931 1034 2 0.5564 -1.3430097918417314 1.7384554835991648 -3.8264873672214583 1 -4 0
3391 854 2 0.5564 -0.13326320385593154 2.6197961642598675 -2.2543064531776844 -4 2 0
4813 1328 2 0.5564 6.208443938539354 1.3722455397084945 -0.6440888702174341 3 0 0
854 9 1 -1.1128 -1.2203595364969704 4.96468633039692 -8.347434544489541 2 1 0
4735 1302 2 0.5564 1.1456762995648477 4.323243605274536 -5.140773165500646 -5 0 0
3204 792 2 0.5564 3.188051837615468 2.6165092972250745 -1.1430898642402272 -2 -1 0
3390 854 2 0.5564 -0.2601388622497551 3.5897534520301817 -1.0988926003345958 -4 2 0
1396 189 2 0.5564 3.0818844836523276 5.464402911166091 -1.6031375859163073 0 -1 0
2629 600 2 0.5564 13.992067773523347 -0.08116990990311776 -8.479082229815594 2 -1 0
3387 853 2 0.5564 1.6341619204565654 0.7460586832707443 -3.879580097551307 -1 3 0
3386 853 1 -1.1128 1.7005054377030993 0.8902532496472825 -2.9356322648063164 -1 3 0
4314 1162 2 0.5564 12.542180209045297 5.781158173790339 -4.204619891551018 3 2 0
2675 616 1 -1.1128 7.928493767608506 0.5211658975492865 -10.649675229607324 2 1 0
2490 554 2 0.5564 9.284802927822192 7.3522272898191625 -5.612499250192745 -1 0 0
1394 189 1 -1.1128 2.9011010939375943 6.401552067392568 -1.5303068170539815 0 -1 0
2858 677 1 -1.1128 10.775894239213734 6.426756428834529 -1.2723527374611399 0 3 0
855 9 2 0.5564 -1.2175775295638958 5.74028350336548 -8.908392097835945 2 1 0
3203 792 1 -1.1128 2.916442682227317 3.4288750458066013 -1.5703155116566405 -2 -1 0
4734 1302 2 0.5564 0.9779826538951695 5.480276605261392 -6.102569425596162 -5 0 0
1109 94 1 -1.1128 4.260454470018607 2.217938531346174 -5.374807635822613 4 3 0
865 12 2 0.5564 1.361675815567003 0.1398002492968562 -0.8534170673797434 1 -2 0
1110 94 2 0.5564 4.4867711450690155 3.0672649795657887 -5.753832252909473 4 3 0
3437 870 1 -1.1128 3.9479636058737717 6.487252305819181 -4.124911801870043 0 3 0
1569 247 2 0.5564 1.7593316904501992 1.0916869041860098 -12.820446155522784 -2 1 0
4496 1223 1 -1.1128 8.314476458003698 1.4998231334594103 -4.871223966624476 -4 -1 0
2239 470 2 0.5564 9.434876514373633 7.105086606141341 -2.795291849739776 2 0 0
2420 531 1 -1.1128 -1.0207207277959196 1.1990371913031528 -10.9985018220038 3 1 0
3528 900 2 0.5564 13.093242382887013 3.860383982315049 -13.502017859317561 1 2 0
3143 772 1 -1.1128 -0.9777510319661165 7.04721559676525 -15.603709364210594 0 -2 0
4007 1060 1 -1.1128 5.299577426253626 4.347233626622998 -2.205099481111444 3 3 0
4498 1223 2 0.5564 8.073805392780477 0.5816694160810472 -4.747516895808252 -4 -1 0
4183 1118 2 0.5564 7.236241543272668 4.267810667613665 -1.9713498751009526 -1 1 0
3660 944 2 0.5564 12.432751177680974 5.533078245621574 -0.9521035370128151 4 -2 0
4812 1328 2 0.5564 7.359198522216221 1.772298736503476 -1.5427637361834383 3 0 0
1006 59 2 0.5564 6.815040696012832 1.7746405709851878 -3.7106973101948055 4 1 0
3083 752 1 -1.1128 13.257822654585683 4.519085306733318 -7.31713825864568 1 -3 0
1577 250 1 -1.1128 12.705987089180095 1.8715851645794859 -4.251361304538833 1 0 0
1005 59 2 0.5564 5.843294592291504 2.748998555619314 -3.0796388303552398 4 1 0
2102 425 1 -1.1128 11.990439059482556 -0.2561160783911773 -12.01436322832836 5 1 0
1111 94 2 0.5564 4.772984296001431 2.171060858094493 -4.567744977676707 4 3 0
2430 534 2 0.5564 9.749930175845948 2.9072596436702334 -2.299283426661926 1 2 0
2431 534 2 0.5564 10.749218801231118 2.081168190801286 -1.517687916244598 1 2 0
4181 1118 1 -1.1128 8.101040484073154 3.8893231795288465 -2.1297921886863502 -1 1 0
3832 1001 2 0.5564 5.748383726923209 1.638229933178456 -6.786356848557248 2 1 0
1896 356 2 0.5564 10.483606703333647 4.337665935416032 -4.5608877379729496 -2 0 0
3249 807 2 0.5564 8.68625326178505 6.150346162477383 -7.112559990333012 0 1 0
1876 349 2 0.5564 3.144435811600283 1.1127208240231716 -10.750527143457074 -1 -1 0
4182 1118 2 0.5564 8.534616024451662 4.515687926531789 -2.7093716194992337 -1 1 0
4009 1060 2 0.5564 5.110015880167509 5.135000037028389 -2.7147288255880864 3 3 0
2429 534 1 -1.1128 10.489190008941074 2.3094041538820873 -2.410171376523331 1 2 0
4315 1162 2 0.5564 11.980794893326717 5.075644314414125 -2.988482024263158 3 2 0
4811 1328 1 -1.1128 7.120493168555296 1.162252953591139 -0.8448411672582821 3 0 0
3597 923 2 0.5564 10.336655950602124 0.32809232579848974 -2.707566874753916 0 1 0
1895 356 1 -1.1128 9.654834545446503 4.097003723164167 -4.974955476837245 -2 0 0
3250 807 2 0.5564 9.016958492174574 4.776411087301511 -6.569575853946762 0 1 0
4803 1325 2 0.5564 12.118144892295062 7.388940106816446 -8.218583300436215 1 -1 0
4549 1240 2 0.5564 9.252483398326701 7.484795566686786 -12.425474235175525 2 -1 0
3076 749 2 0.5564 0.21476892500836106 -0.3347824052650873 -5.256194235543561 1 -1 0
4842 1338 2 0.5564 13.299931179290073 4.864211813113623 -16.138120494683772 2 0 0
4802 1325 1 -1.1128 12.104086208770864 7.123772620879886 -7.298952624017583 1 -1 0
4430 1201 1 -1.1128 12.590948519957074 7.740747952051244 -4.219951896819511 0 1 0
4499 1224 1 -1.1128 -1.7273352076350963 6.933122060173571 -2.2038265973705577 0 -1 0
4804 1325 2 0.5564 11.248832094196052 7.4112242322737805 -6.979352002837361 1 -1 0
837 3 2 0.5564 -1.1183372068974602 5.392103443226876 -4.775998597695645 1 -1 0
1093 88 2 0.5564 6.215954038228974 -0.35600597438972564 -1.8861644011644505 0 -1 0
1877 350 1 -1.1128 7.2724266901467205 -0.41751474819646345 -12.995376499927705 6 0 0
984 52 2 0.5564 4.312023365809746 -0.6711335035179801 -5.167970761734415 -2 -3 0
4500 1224 2 0.5564 -1.804944619487781 6.394574995959646 -2.9913425919693397 0 -1 0
3633 935 2 0.5564 1.392188132088744 7.494280877823332 -11.828010801771775 -5 -1 0
2889 687 2 0.5564 2.878374374876518 7.777984101687515 -15.127059830870666 -1 0 0
2427 533 2 0.5564 12.892736095307276 1.8844409576185344 -0.21791579324244037 0 1 0
2382 518 2 0.5564 4.524167362456748 3.927144307151537 4.7592126917004665 -1 -1 0
1984 385 2 0.5564 1.539744290417762 6.564153853300536 5.033863439764017 -2 2 0
3210 794 2 0.5564 7.339750310627036 -0.07215994862848038 4.512997217780253 2 1 0
3819 997 2 0.5564 9.634181867079171 7.154174406626239 7.943171167882977 4 0 0
4881 1351 2 0.5564 -0.8465585663210697 6.373528064407988 3.989567439653942 2 2 0
2383 518 2 0.5564 3.161185657008951 4.430994745288564 4.334574212193692 -1 -1 0
2381 518 1 -1.1128 3.595101620356231 3.6970081822667145 4.769567966770177 -1 -1 0
4370 1181 1 -1.1128 1.8224967861176888 2.0623680291534114 6.725795583196629 0 0 0
1053 75 2 0.5564 0.21232219189430507 2.9925004218280167 4.099228542388711 0 0 0
4372 1181 2 0.5564 2.4301482648373884 2.1812526249318647 5.99582426409157 0 0 0
4545 1239 2 0.5564 4.9895899783041555 1.6909803478651813 7.9112404822610065 -1 2 0
4544 1239 1 -1.1128 4.302217092520398 1.6667278178152523 8.576945416047824 -1 2 0
4546 1239 2 0.5564 3.5114598414342817 1.9463615597793615 8.115707744776723 -1 2 0
1033 68 2 0.5564 0.5059267891794215 3.494501299882279 6.218811763118566 -5 7 0
1983 385 2 0.5564 0.6262445314577809 6.786446718886986 6.220457916056076 -2 2 0
428 2 4 0 4.9121 2.836 22.709149600932808 0 0 0
3167 780 1 -1.1128 1.9665787877218797 -0.7072446178873396 7.662125371243686 3 2 0
1982 385 1 -1.1128 0.6187025159623567 6.5464354797673545 5.293865858433529 -2 2 0
2106 426 2 0.5564 -0.23791176418324847 4.9210066658156855 1.4765524682998457 2 -2 0
1988 387 1 -1.1128 10.384152499828668 7.477942680005388 2.1400912345769174 0 -2 0
939 37 2 0.5564 0.19423682315657192 7.3434371632624185 0.20904323940954925 3 4 0
4002 1058 2 0.5564 3.535122298278049 1.0116244129920369 2.7443641350788197 4 1 0
3779 984 1 -1.1128 2.631192720376128 5.794779110731466 3.463958925096367 -3 -2 0
1308 160 2 0.5564 5.946388422442469 1.7495004397460183 5.5624567622949295 1 1 0
3781 984 2 0.5564 2.022608692255815 5.360492548565291 2.866250984865041 -3 -2 0
1052 75 1 -1.1128 0.30569527132673113 2.3996498580639076 3.3535466422698987 0 0 0
3780 984 2 0.5564 3.26685600713304 6.222565111880084 2.890229576558069 -3 -2 0
3975 1049 2 0.5564 12.856455557842635 7.6459968407934635 11.814060601314067 2 2 0
3197 790 1 -1.1128 3.7332670684724394 5.922282513821981 6.885435625513827 -2 0 0
3198 790 2 0.5564 3.7890550564059806 5.133672570108598 6.345792339681134 -2 0 0
903 25 2 0.5564 1.87751347447164 0.24253695097459882 1.4402386642841547 3 0 0
3796 989 2 0.5564 4.574309378681153 6.800661186833125 0.6296537290383487 2 2 0
1054 75 2 0.5564 -0.5530348519966399 1.985727453765569 3.267043492131317 0 0 0
4591 1254 2 0.5564 -0.5314325233588995 1.6767110626439832 12.05042864475461 -1 2 0
1843 338 2 0.5564 5.252776846851498 4.645765235657903 1.6828571781363366 3 0 0
4003 1058 2 0.5564 3.817644785167592 2.263427441942133 3.5475251195321627 4 1 0
1307 160 1 -1.1128 5.616543976273645 1.0034751208829054 6.063337326449142 1 1 0
864 12 2 0.5564 0.25313491199426147 0.7023561099273988 0.010621606384527204 1 -2 0
3574 915 2 0.5564 0.13489058758308617 -0.45109325437628545 8.294004846725704 5 -3 0
3199 790 2 0.5564 3.4898037297135205 5.602000278214895 7.7539883277045645 -2 0 0
4001 1058 1 -1.1128 4.164730141684079 1.726915740114039 2.8348400797597897 4 1 0
4371 1181 2 0.5564 1.7388403157152355 1.1131308169717797 6.816253886082013 0 0 0
3184 785 2 0.5564 -1.530559193456762 0.40432853924698603 2.967308577219643 2 -2 0
3794 989 1 -1.1128 4.093302563997659 6.04737823032389 0.9723379415504383 2 2 0
432 2 4 0 7.36814 2.836 22.709149600932808 0 0 0
3573 915 2 0.5564 -1.361004191685905 -0.6260661514965351 8.140438226130874 5 -3 0
1032 68 2 0.5564 0.29757769666632977 4.6966296157547855 5.322497858599803 -5 7 0
3795 989 2 0.5564 3.2938811584097594 6.0138846651555955 0.44694629603346103 2 2 0
4005 1059 2 0.5564 -0.5932353403026485 2.370624254934501 14.787360122160614 4 2 0
2168 447 1 -1.1128 7.98901304344706 5.4057408387893915 11.691785061356747 0 1 0
434 2 4 0 8.59617 0.709 22.709149600932808 0 0 0
4207 1126 2 0.5564 12.59319956755085 6.268079318762284 2.0984468853832596 0 5 0
1073 82 1 -1.1128 6.260938532010829 3.0967030728248917 4.636234144540182 3 0 0
1074 82 2 0.5564 6.282508056251129 3.5113217508420647 3.773761075819251 3 0 0
1075 82 2 0.5564 6.632149137897501 3.7520809681737 5.226925191059418 3 0 0
2270 481 1 -1.1128 13.992597823754604 2.9372633142094378 15.834209520330353 -1 3 0
5023 1398 2 0.5564 7.5645009329263635 1.7791878425493772 0.8720883306325629 1 2 0
5021 1398 1 -1.1128 7.84147697958922 2.1565815194129505 1.707007797534896 1 2 0
3399 857 2 0.5564 9.883265454203729 4.967307166751909 5.324909941983099 -3 1 0
3400 857 2 0.5564 8.592346903865677 5.536982318725991 5.87344867466576 -3 1 0
4589 1254 1 -1.1128 -0.5315818298161109 1.4914672924893693 12.989534621829463 -1 2 0
2562 578 2 0.5564 -0.8759646127579658 7.0738709391053165 7.809235387101882 -3 3 0
486 2 4 0 8.59617 4.963 22.709149600932808 0 0 0
1021 64 2 0.5564 10.290843552297694 3.6415895936409473 3.1225626166203804 -2 2 0
1019 64 1 -1.1128 10.309470664951311 3.4446864914569284 4.059106887875194 -2 2 0
1309 160 2 0.5564 6.3995509955017935 0.6031091161355306 6.441277627050776 1 1 0
3223 798 2 0.5564 9.278847703021443 2.7385833969429734 5.351606137681669 1 3 0
3221 798 1 -1.1128 9.06338555566707 2.1303310837706477 6.058597208695623 1 3 0
3222 798 2 0.5564 8.737530406392882 1.3489473163167796 5.611955136077828 1 3 0
3735 969 2 0.5564 -1.7721826686118476 4.251245323711164 6.311302965386526 4 -1 0
4880 1351 1 -1.1128 -1.2977712931126437 6.26256669363047 3.152711798993936 2 2 0
1020 64 2 0.5564 11.200645433709942 3.135451250358448 4.2216459265699875 -2 2 0
3446 873 1 -1.1128 10.674859573226435 4.020905214193813 1.306533082553477 0 -3 0
4590 1254 2 0.5564 -1.1219421393876263 0.7442895290344778 13.086664032291509 -1 2 0
3448 873 2 0.5564 11.44849623551201 4.528490724783053 1.5516388807176025 0 -3 0
3398 857 1 -1.1128 9.50099850207978 5.769027397989921 5.681770081283292 -3 1 0
2875 682 2 0.5564 7.853634522813656 6.866419448305929 0.45563561100528693 -1 -1 0
3044 739 1 -1.1128 9.814989677394358 0.7357470072336354 2.800638361783484 1 1 0
3045 739 2 0.5564 9.117499474848286 1.3814081944735077 2.6872105280172143 1 1 0
1842 338 2 0.5564 6.756473857829662 4.68406668000208 1.5116070847972298 3 0 0
442 2 4 0 13.5083 0.709 22.709149600932808 0 0 0
3046 739 2 0.5564 10.452631513690609 0.949110525749166 2.119374501314969 1 1 0
1963 378 2 0.5564 5.8243113209890875 0.03291208507254056 19.226300424837795 1 0 0
1841 338 1 -1.1128 6.068489341809651 4.351052469221544 2.0878150038010315 3 0 0
3169 780 2 0.5564 2.456517733802038 -0.7060365354860594 6.839814488433993 3 2 0
3879 1017 2 0.5564 5.656484062797877 0.3668406932754476 2.660881555120569 1 -3 0
5022 1398 2 0.5564 7.074818652160638 2.6371880302917776 2.019232843067773 1 2 0
1365 179 2 0.5564 3.1483496420630406 7.427962719951647 16.375215561183875 2 1 0
4653 1275 2 0.5564 6.561592334743659 5.445932432190181 7.217602208565067 1 -1 0
4652 1275 1 -1.1128 7.139231904820048 4.75685388022233 6.889369632091474 1 -1 0
2819 664 1 -1.1128 11.903328709514499 0.3442595907191641 5.979299107263542 0 4 0
2820 664 2 0.5564 12.079615399445661 1.0765429747950253 5.388605591264827 0 4 0
1952 375 1 -1.1128 -1.4196524884536552 4.763398055034938 17.00392836482992 1 5 0
902 25 1 -1.1128 2.046252699888081 -0.14210628394982158 2.3003630703138795 3 0 0
953 42 1 -1.1128 12.776111167696934 2.493472203923938 4.467071762928062 -5 1 0
4206 1126 2 0.5564 13.336989647572274 5.512302627518158 1.0179498743960977 0 5 0
2821 664 2 0.5564 11.144146498861131 -0.09545158937671644 5.59650849885609 0 4 0
940 37 2 0.5564 0.5299523166730232 5.87886257054421 0.3940048376101556 3 4 0
2271 481 2 0.5564 13.73426779742816 2.0211232183434005 15.935144506817544 -1 3 0
3447 873 2 0.5564 11.017683710132088 3.1578249497554185 1.0745937772718628 0 -3 0
437 2 4 0 12.2802 0 22.709149600932808 0 0 0
481 2 4 0 7.36814 4.254 22.709149600932808 0 0 0
1989 387 2 0.5564 9.501338201221246 7.708188163106838 1.8505099504493911 0 -2 0