LAMMPS data file via write_data, version 2 Aug 2023, timestep = 6000000, units = real

4432 atoms
4 atom types
2400 bonds
1 bond types
1200 angles
1 angle types
0 impropers
1 improper types

-1.8420299999999998 30.08661 xlo xhi
-0.709 33.323 ylo yhi
-150 150 zlo zhi

Masses

1 15.9994
2 1.00794
3 12.0107
4 12.0107

Pair Coeffs # lj/cut/tip4p/long

1 0.1852 3.1589
2 0 0
3 0.0859 3.3997
4 0.0859 3.3997

Bond Coeffs # harmonic

1 5000 0.9572

Angle Coeffs # harmonic

1 500 104.52

Atoms # full

1 1 3 0 0 0 -16.168203030381882 0 0 0
2 1 3 0 -1.22802 0.709 -16.168203030381882 0 0 0
3 1 3 0 -1.22802 2.127 -16.168203030381882 0 0 0
4 1 3 0 0 2.836 -16.168203030381882 0 0 0
5 1 3 0 2.45605 0 -16.168203030381882 0 0 0
6 1 3 0 1.22802 0.709 -16.168203030381882 0 0 0
7 1 3 0 1.22802 2.127 -16.168203030381882 0 0 0
8 1 3 0 2.45605 2.836 -16.168203030381882 0 0 0
9 1 3 0 4.9121 0 -16.168203030381882 0 0 0
10 1 3 0 3.68407 0.709 -16.168203030381882 0 0 0
11 1 3 0 3.68407 2.127 -16.168203030381882 0 0 0
12 1 3 0 4.9121 2.836 -16.168203030381882 0 0 0
14 1 3 0 6.14012 0.709 -16.168203030381882 0 0 0
15 1 3 0 6.14012 2.127 -16.168203030381882 0 0 0
53 1 3 0 0 4.254 -16.168203030381882 0 0 0
54 1 3 0 -1.22802 4.963 -16.168203030381882 0 0 0
55 1 3 0 -1.22802 6.381 -16.168203030381882 0 0 0
56 1 3 0 0 7.09 -16.168203030381882 0 0 0
57 1 3 0 2.45605 4.254 -16.168203030381882 0 0 0
58 1 3 0 1.22802 4.963 -16.168203030381882 0 0 0
59 1 3 0 1.22802 6.381 -16.168203030381882 0 0 0
60 1 3 0 2.45605 7.09 -16.168203030381882 0 0 0
61 1 3 0 4.9121 4.254 -16.168203030381882 0 0 0
62 1 3 0 3.68407 4.963 -16.168203030381882 0 0 0
63 1 3 0 3.68407 6.381 -16.168203030381882 0 0 0
64 1 3 0 4.9121 7.09 -16.168203030381882 0 0 0
66 1 3 0 6.14012 4.963 -16.168203030381882 0 0 0
67 1 3 0 6.14012 6.381 -16.168203030381882 0 0 0
13 1 3 0 7.36814 0 -16.168203030381882 0 0 0
16 1 3 0 7.36814 2.836 -16.168203030381882 0 0 0
17 1 3 0 9.82419 0 -16.168203030381882 0 0 0
18 1 3 0 8.59617 0.709 -16.168203030381882 0 0 0
19 1 3 0 8.59617 2.127 -16.168203030381882 0 0 0
20 1 3 0 9.82419 2.836 -16.168203030381882 0 0 0
21 1 3 0 12.2802 0 -16.168203030381882 0 0 0
22 1 3 0 11.0522 0.709 -16.168203030381882 0 0 0
23 1 3 0 11.0522 2.127 -16.168203030381882 0 0 0
24 1 3 0 12.2802 2.836 -16.168203030381882 0 0 0
26 1 3 0 13.5083 0.709 -16.168203030381882 0 0 0
27 1 3 0 13.5083 2.127 -16.168203030381882 0 0 0
65 1 3 0 7.36814 4.254 -16.168203030381882 0 0 0
68 1 3 0 7.36814 7.09 -16.168203030381882 0 0 0
69 1 3 0 9.82419 4.254 -16.168203030381882 0 0 0
70 1 3 0 8.59617 4.963 -16.168203030381882 0 0 0
71 1 3 0 8.59617 6.381 -16.168203030381882 0 0 0
72 1 3 0 9.82419 7.09 -16.168203030381882 0 0 0
73 1 3 0 12.2802 4.254 -16.168203030381882 0 0 0
74 1 3 0 11.0522 4.963 -16.168203030381882 0 0 0
75 1 3 0 11.0522 6.381 -16.168203030381882 0 0 0
76 1 3 0 12.2802 7.09 -16.168203030381882 0 0 0
78 1 3 0 13.5083 4.963 -16.168203030381882 0 0 0
79 1 3 0 13.5083 6.381 -16.168203030381882 0 0 0
2106 426 2 0.5564 2.3234896744640103 4.335182369577083 -10.17913491125007 0 -4 0
1032 68 2 0.5564 2.189870415080667 3.1263672751280627 -12.992852795056885 -2 -2 0
2105 426 1 -1.1128 2.24015683685422 4.7333729553594655 -9.312687170888044 0 -4 0
4092 1088 2 0.5564 0.9441532228786423 5.7660676668235125 -8.48930971066428 0 0 0
2461 544 2 0.5564 3.7763270434953435 6.735528623603635 -14.067938361484249 1 0 0
1904 359 1 -1.1128 5.616026146611558 0.4503138212151197 -9.638703949005194 -2 1 0
2459 544 1 -1.1128 4.063513291756093 6.929248447964879 -13.175621898942799 1 0 0
1905 359 2 0.5564 5.872056422265517 0.4854499462112639 -8.717049473621621 -2 1 0
3075 749 2 0.5564 0.07821630922696267 2.2120935346058466 -12.122666488247122 2 0 0
1947 373 2 0.5564 4.41890663547185 6.798094673104799 -7.744505564837169 0 0 0
1848 340 2 0.5564 -1.243048941913354 2.8806991475458275 -9.894830708614833 2 -1 0
1906 359 2 0.5564 5.019000262318587 -0.29586035105816044 -9.693648545698984 -2 1 0
2107 426 2 0.5564 3.0372283198369354 4.472803679023716 -8.851154165681592 0 -4 0
1031 68 1 -1.1128 1.5866553456216135 2.3927789224840756 -12.873637356636896 -2 -2 0
3742 971 2 0.5564 3.87181427739161 5.1961056552973925 -12.819804028738824 2 4 0
3740 971 1 -1.1128 3.7863345130016235 4.307712470129397 -12.47384419275601 2 4 0
1335 169 2 0.5564 4.011798459561949 0.9128098822500935 -12.25428708761311 -4 -3 0
3741 971 2 0.5564 4.641321544370618 3.9063612920292194 -12.629236203370997 2 4 0
4091 1088 1 -1.1128 0.05886042976046976 5.990266019981822 -8.202562466022346 0 0 0
2642 605 1 -1.1128 0.8946789735083882 -0.37110197715082577 -11.215628310187542 3 -1 0
1033 68 2 0.5564 2.045057530250686 1.7993951850808028 -12.278661008240267 -2 -2 0
3757 976 2 0.5564 -0.6354399078785044 6.5490820126321365 -12.571762447323673 1 -2 0
3755 976 1 -1.1128 0.27847766779161426 6.816387481968559 -12.6694258841294 1 -2 0
1383 185 2 0.5564 5.482144948680418 2.1790163447843924 -13.815190710907448 1 0 0
1382 185 1 -1.1128 5.80610679325695 2.0343820387288116 -12.926167646700215 1 0 0
1334 169 1 -1.1128 3.2302787095072847 0.37304545387217647 -12.135486203471599 -4 -3 0
1336 169 2 0.5564 3.454139314312466 -0.465509990418113 -12.539150292470401 -4 -3 0
1847 340 1 -1.1128 -1.0378092357245337 3.542157219816251 -9.23408598106931 2 -1 0
2852 675 1 -1.1128 0.9949230218632786 2.4160793876065796 -7.958378015050724 0 0 0
2854 675 2 0.5564 1.609868938250435 2.718462437702949 -8.626688378019931 0 0 0
3756 976 2 0.5564 0.7815364660425563 6.091080049680971 -12.299165188974063 1 -2 0
2644 605 2 0.5564 0.3701710689314989 0.39529366309220576 -11.447495338779593 3 -1 0
2643 605 2 0.5564 1.7846610959085991 -0.1430092280224865 -11.484223224967776 3 -1 0
4093 1088 2 0.5564 -0.49438448548088376 5.301489888185464 -8.570990883220864 0 0 0
1176 116 2 0.5564 4.877860446138885 5.318538026331622 -10.792328415252253 0 4 0
1177 116 2 0.5564 5.528036755038698 6.619366802692805 -10.371602077391152 0 4 0
1654 275 2 0.5564 1.1566843060644776 0.608935373928411 -8.238495624787499 -2 2 0
1849 340 2 0.5564 -0.47399046800612865 3.088581405458709 -8.60749522133209 2 -1 0
1652 275 1 -1.1128 1.189986503239508 -0.3200938151228634 -8.010397926289302 -2 2 0
3074 749 1 -1.1128 -0.7703187018138133 1.9629625299363747 -11.756395479822174 2 0 0
1175 116 1 -1.1128 5.725877472432468 5.759790636701278 -10.743383175336685 0 4 0
3076 749 2 0.5564 -1.1251574579146186 1.3306870267039483 -12.38133484184149 2 0 0
3482 885 1 -1.1128 -1.494845650474797 -0.3628302290563901 -13.106937195809254 2 2 0
2805 659 2 0.5564 0.43755452401670497 7.7290055516453835 -7.78524310759144 -2 5 0
2070 414 2 0.5564 13.161073268800683 0.7828584329400508 -13.048990626811834 1 3 0
2601 591 2 0.5564 14.027411229086809 7.029049466855142 -12.625672044033484 -6 2 0
1384 185 2 0.5564 6.263636565844889 1.1948092192129671 -12.971091708672017 1 0 0
4226 1133 1 -1.1128 12.967911508909285 3.705385489108283 -12.182280447231939 -6 4 0
4314 1162 2 0.5564 10.903771698259431 0.38546938462306574 -12.711370771076005 1 -2 0
2697 623 2 0.5564 12.557179410173442 -0.0001348828288449816 -9.294370739728146 -1 2 0
2004 392 2 0.5564 8.83608420686492 2.83302172155656 -9.053493653802068 1 0 0
2003 392 1 -1.1128 9.392555758767234 3.5955741391386495 -8.895103891752106 1 0 0
2005 392 2 0.5564 8.79215950716311 4.268179754189342 -8.573597315336283 1 0 0
2099 424 1 -1.1128 7.176662753131199 4.4002269550251025 -12.66307397137733 2 0 0
2960 711 1 -1.1128 8.434133457171436 1.1988690157585213 -9.917373398478242 -7 3 0
3050 741 1 -1.1128 14.073440121919171 3.3244141574116695 -9.723527506716232 2 3 0
3109 760 2 0.5564 8.27240645922641 0.4877190804903514 -12.677691097360173 2 -1 0
4228 1133 2 0.5564 12.0114981947865 3.737017391560024 -12.204800021082457 -6 4 0
3051 741 2 0.5564 13.801219055093892 3.3182294883481793 -10.641185452847575 2 3 0
3107 760 1 -1.1128 9.112706848023748 0.9335099565829591 -12.570921573115937 2 -1 0
3108 760 2 0.5564 9.04671626710301 1.3697436248116486 -11.721462695230718 2 -1 0
4194 1122 2 0.5564 9.753438696981927 3.0255904807243454 -12.95198916134032 -2 -1 0
4195 1122 2 0.5564 9.187847972782228 4.207371694114539 -12.193440897214701 -2 -1 0
4193 1122 1 -1.1128 10.012093682633893 3.772819542350471 -12.412565145834805 -2 -1 0
2961 711 2 0.5564 7.550885751375606 0.9351004567485787 -9.659433476150319 -7 3 0
1059 77 2 0.5564 10.82707163066623 5.584048957398797 -11.19222209953106 -2 1 0
2100 424 2 0.5564 6.831178349193646 4.920178348333004 -11.93745141859307 2 0 0
2101 424 2 0.5564 6.61789063281466 3.623485031585113 -12.689113295765855 2 0 0
1060 77 2 0.5564 10.232194178705235 4.94494889541077 -9.955465163864487 -2 1 0
2962 711 2 0.5564 8.875925690844712 0.37797405943055806 -10.134591531497279 -7 3 0
1058 77 1 -1.1128 10.582763803120676 5.772033994944889 -10.286017205597151 -2 1 0
3052 741 2 0.5564 13.300614656076231 3.0293512561607865 -9.241955788510591 2 3 0
4315 1162 2 0.5564 12.001309625886076 -0.15579332918895947 -11.820110513188174 1 -2 0
3625 932 2 0.5564 11.442280177385081 6.599527644028762 -8.687262499419715 -1 -1 0
2696 623 1 -1.1128 12.754588622172227 -0.6615588935318872 -9.957530458013025 -1 2 0
1477 216 2 0.5564 10.890341419034867 3.258608668620234 -8.016972970235177 0 1 0
2176 449 2 0.5564 7.341655232137599 5.904995243909567 -8.62862227989693 5 -3 0
4313 1162 1 -1.1128 11.638376435970674 -0.22814200312802288 -12.70287765288724 1 -2 0
1475 216 1 -1.1128 11.650235647670941 2.985140416566361 -7.503149536661295 0 1 0
3623 932 1 -1.1128 11.99923058596083 7.0827445583703055 -8.076899192990112 -1 -1 0
2174 449 1 -1.1128 7.886080406267285 5.590063401752215 -7.907060674121628 5 -3 0
2600 591 1 -1.1128 14.098510681573575 6.3125722634746335 -13.256416836247647 -6 2 0
3624 932 2 0.5564 12.891850760552407 6.839611746962052 -8.322567336656077 -1 -1 0
4227 1133 2 0.5564 13.245261006653882 4.4717281226902585 -12.684307384366223 -6 4 0
3737 970 1 -1.1128 6.677139098242781 -0.660086643671576 -12.612476084897596 -4 -1 0
2071 414 2 0.5564 13.900987339193968 2.033418706723175 -12.62411192915691 1 3 0
2069 414 1 -1.1128 14.041758087249699 1.1447976270586127 -12.95086734067871 1 3 0
3535 902 2 0.5564 4.5168496086871786 4.141568545446808 -7.368841669370573 -1 0 0
3533 902 1 -1.1128 4.388145696544571 3.19622020266922 -7.4462069193617895 -1 0 0
1948 373 2 0.5564 4.910633056295074 6.155430938115954 -6.465019758316046 0 0 0
1946 373 1 -1.1128 4.190078673813944 6.133504367497592 -7.094744368297601 0 0 0
2853 675 2 0.5564 1.2974608264854066 2.828890956395824 -7.149493915474117 0 0 0
2205 459 2 0.5564 5.638647185653763 2.252282532009885 -6.930143347187276 -2 -4 0
3020 731 1 -1.1128 5.374211873907131 -0.5553706489756894 -5.357211213909074 0 4 0
2206 459 2 0.5564 5.908424917902776 0.9434191313882431 -6.218811886872384 -2 -4 0
3021 731 2 0.5564 4.9009556408620005 -0.48182390355843663 -4.528445300201894 0 4 0
1455 209 2 0.5564 -1.5342085013452167 -0.6772498310986634 -3.5558129804470684 9 5 0
3534 902 2 0.5564 3.7515602486889765 2.984029411413217 -6.763588927804972 -1 0 0
4035 1069 2 0.5564 1.1623753458497041 3.941167233406464 -5.516924884162205 -1 3 0
4034 1069 1 -1.1128 1.864975620086323 3.291103265514701 -5.518113513514279 -1 3 0
4389 1187 2 0.5564 0.03377337450740779 5.77082808127683 -6.394266777991833 0 1 0
1665 279 2 0.5564 1.4305742951375044 6.052526536900066 -0.5858115941667136 2 7 0
2081 418 1 -1.1128 -0.040637584187928816 2.101936766615954 -1.8907594705298705 2 1 0
2083 418 2 0.5564 -0.49343295401921544 2.883612851550261 -2.2072887026316668 2 1 0
1664 279 1 -1.1128 1.372950940429884 5.998568027241585 -1.5397509359834614 2 7 0
1666 279 2 0.5564 1.3220486841280867 6.909593813686805 -1.8290143330371371 2 7 0
4238 1137 1 -1.1128 4.120424397854017 5.714259057273578 -1.8249893883944286 1 1 0
4388 1187 1 -1.1128 0.1283402409973478 5.643787135506745 -5.450256499246082 0 1 0
2082 418 2 0.5564 0.616621615608956 2.435982483144018 -1.2803038170426553 2 1 0
3661 944 2 0.5564 -0.057589443138001704 1.1258532013371272 -4.83593528025623 1 2 0
3115 762 2 0.5564 -0.450005534299185 5.312370540515529 -2.0986743029512787 3 -2 0
4390 1187 2 0.5564 -0.7617930916992539 5.722423940188106 -5.107165719000989 0 1 0
3660 944 2 0.5564 0.5795038331035762 1.4358191615561218 -3.4980525864766463 1 2 0
3659 944 1 -1.1128 0.7873309637768011 1.146788137354275 -4.386593759912248 1 2 0
1333 168 2 0.5564 3.0940759189715408 6.630398423425232 -5.743351917668777 2 0 0
1332 168 2 0.5564 1.750262449804232 6.529855681113605 -5.053457926270732 2 0 0
3565 912 2 0.5564 2.170967043950178 -0.32909549832263363 -3.2908104461705405 -2 4 0
4036 1069 2 0.5564 1.4673730962989942 2.5073005855491366 -5.138906261649204 -1 3 0
3649 940 2 0.5564 5.807346362024646 0.9945603641047075 -3.0826812544067037 4 2 0
3648 940 2 0.5564 4.3717421345287635 1.3470125832914468 -3.4093536055892892 4 2 0
3647 940 1 -1.1128 5.198259158700746 1.7321176524301822 -3.118154513159254 4 2 0
1738 303 2 0.5564 5.627618425913717 3.376518538656266 -3.4283070751942923 -1 0 0
3563 912 1 -1.1128 3.1091539344160046 -0.4105532349537723 -3.1193372012735736 -2 4 0
1331 168 1 -1.1128 2.5866954710137047 6.993894686152569 -5.017629619024535 2 0 0
1736 303 1 -1.1128 5.929098606990972 4.274914531127103 -3.5633125588344976 -1 0 0
4239 1137 2 0.5564 4.437530305335165 5.673190191747439 -2.7272030464846173 1 1 0
4240 1137 2 0.5564 3.1765391632342452 5.84981943570757 -1.9082998925787613 1 1 0
2029 400 2 0.5564 5.941014708479376 6.29997195119522 -1.2254944208295884 3 -1 0
2975 716 1 -1.1128 3.8526263673942798 -0.6999187296964279 -0.19607172605457646 0 -1 0
2699 624 1 -1.1128 -1.8082569429558681 1.5267942933958956 -5.473455271517099 3 4 0
2212 461 2 0.5564 4.599598335663362 2.7831909875395606 -1.8076764949220019 2 2 0
3114 762 2 0.5564 -1.784516690067859 4.814004388995552 -1.5862146747730361 3 -2 0
3564 912 2 0.5564 3.1978661119000273 -0.23636477563858727 -2.182308443916136 -2 4 0
3784 985 2 0.5564 5.989013375392889 3.0768289953991506 -0.27902782077945676 1 0 0
3113 762 1 -1.1128 -1.237107971900386 4.840621377116713 -2.3709917644065204 3 -2 0
2211 461 2 0.5564 4.312947968924285 4.190565812178088 -1.3291125336552612 2 2 0
2210 461 1 -1.1128 4.348056302532717 3.2818713207877326 -1.030324306773621 2 2 0
3900 1024 2 0.5564 0.39714487878566856 0.4284109521233724 -1.4927841873793175 3 1 0
3899 1024 1 -1.1128 0.5476280009842965 -0.5159090591117477 -1.5357878781094458 3 1 0
2280 484 2 0.5564 12.474185168208342 4.464785327061464 -1.2872358375062602 -1 1 0
3445 872 2 0.5564 9.043044999279628 1.1427641159271522 -1.635191908533224 -1 -1 0
2175 449 2 0.5564 7.52677311419614 6.0189497004801895 -7.130409684361056 5 -3 0
1268 147 1 -1.1128 9.076456008647732 7.065686571711709 -3.2436173405565953 6 3 0
1476 216 2 0.5564 11.41796726994351 2.1165024504385075 -7.174889084553339 0 1 0
2028 400 2 0.5564 7.226773753271073 5.966693843306165 -0.4990989811163702 3 -1 0
2027 400 1 -1.1128 6.56897133013888 6.655211550432298 -0.5964414742618374 3 -1 0
1567 246 2 0.5564 6.871214721129173 6.896201126495579 -5.034230801644879 -1 0 0
1566 246 2 0.5564 6.140915620066469 5.63018077747397 -4.639570292192883 -1 0 0
1565 246 1 -1.1128 6.194895630414946 6.288134781989281 -5.332693531756657 -1 0 0
1270 147 2 0.5564 10.006366622362581 6.838916156420225 -3.234764200031927 6 3 0
2281 484 2 0.5564 11.333887631095775 4.001719261188076 -2.168817670086964 -1 1 0
3443 872 1 -1.1128 8.822978985168202 0.9571952630757643 -0.7223020593223519 -1 -1 0
2233 468 2 0.5564 11.73924600839895 -0.46127218172594303 -6.845558848215574 0 0 0
854 9 1 -1.1128 9.668904994622892 0.9231048107952353 -3.4252536870006356 0 1 0
2232 468 2 0.5564 10.327816577230603 0.03019398973026571 -6.604258668486277 0 0 0
2204 459 1 -1.1128 6.286511099408298 1.5518046096042581 -6.85375298556661 -2 -4 0
1845 339 2 0.5564 11.830918760491613 6.094919433579377 -4.377591329598908 -2 0 0
1844 339 1 -1.1128 11.800769449732826 6.437984334506148 -3.48448660012238 -2 0 0
2560 577 2 0.5564 8.58636593300996 5.229821552631998 -3.2557874112401652 -1 4 0
4309 1160 2 0.5564 7.526017918453615 -0.04042920484329977 -2.3739940502592307 -2 -3 0
1737 303 2 0.5564 6.803259050283529 4.295780441013666 -3.173901973726906 -1 0 0
3651 941 2 0.5564 11.942081794764132 3.5470616861133495 -4.375537268440406 -3 -1 0
3657 943 2 0.5564 12.834253028662316 -0.13825815990131426 -0.46307284261776943 1 1 0
2673 615 2 0.5564 12.253124853136866 4.367268691973121 -6.268058635239464 2 4 0
2231 468 1 -1.1128 11.123073121870494 0.22568899549841626 -7.0998202995886555 0 0 0
1846 339 2 0.5564 11.807548521074187 5.65925331494121 -2.927918687530096 -2 0 0
3650 941 1 -1.1128 11.663904346029975 3.049763218263913 -3.6064171921702646 -3 -1 0
2094 422 2 0.5564 8.736404538675945 4.846615884648295 -1.2468747682329575 -1 3 0
2672 615 1 -1.1128 12.405657781564356 4.935919308716541 -5.5133363443172385 2 4 0
856 9 2 0.5564 9.123091898775634 0.8428705739320962 -4.207483706064632 0 1 0
2093 422 1 -1.1128 8.58323255363715 4.8500406316203355 -0.3020147054234689 -1 3 0
1628 267 1 -1.1128 8.895850637308287 2.9988535416670854 -5.4119959025709194 3 2 0
2559 577 2 0.5564 8.621182420579952 3.8654888914264505 -3.910981817590721 -1 4 0
1630 267 2 0.5564 8.216774333251955 2.586906268233345 -5.94621201224941 3 2 0
3652 941 2 0.5564 12.434510364656521 2.5383698811020214 -3.3596868536380797 -3 -1 0
4307 1160 1 -1.1128 6.86032876168541 -0.5250771902972868 -2.862058085992373 -2 -3 0
1404 192 2 0.5564 7.733006175897807 0.5863507357480346 -6.605747865756484 -1 3 0
2279 484 1 -1.1128 11.528210927606935 4.548138009041465 -1.4073078197754378 -1 1 0
2674 615 2 0.5564 13.334664601305542 4.82346859677794 -5.31199833056415 2 4 0
1403 192 1 -1.1128 8.35987915784527 -0.028195427057105746 -6.224172940236629 -1 3 0
1629 267 2 0.5564 9.681526124945774 2.9693451359321337 -5.957958480248421 3 2 0
2431 534 2 0.5564 11.083481612007217 -0.24008433329413656 -3.5110953769387834 -1 -2 0
855 9 2 0.5564 10.210021144848174 1.6956407630816175 -3.588400232784927 0 1 0
2558 577 1 -1.1128 8.47483316197669 4.297574753552245 -3.069485543847623 -1 4 0
3444 872 2 0.5564 8.14108031851842 1.5930962311911903 -0.505784200803018 -1 -1 0
3656 943 1 -1.1128 13.560979118699851 -0.15471415602170457 -1.085833409426842 1 1 0
4404 1192 2 0.5564 11.091665809152177 7.6600200861184815 -6.300242751947345 0 0 0
2959 710 2 0.5564 12.68908619751286 7.4665161254902745 -2.520679326273304 0 -1 0
2430 534 2 0.5564 12.116183797485624 -0.5184659895387682 -2.439682012184291 -1 -2 0
1115 96 1 -1.1128 -1.4143000197733802 7.11418394590105 6.334072811826489 -1 -3 0
2885 686 1 -1.1128 2.3343440860488864 -0.16624632637175904 3.8835320526060344 2 3 0
3805 992 2 0.5564 1.7373290128078729 3.9739602117453283 2.7959184768201415 3 -2 0
2954 709 1 -1.1128 3.2525758076960782 3.253938322563572 3.2072143750818176 -1 -1 0
1147 106 2 0.5564 4.182710625663929 1.8552961676568673 6.4216109583500725 -2 -2 0
3916 1029 2 0.5564 1.4213318142290616 3.3289668000075276 1.0294178279463133 -1 3 0
3804 992 2 0.5564 0.27166527152018427 3.6495317199710575 2.599745876323415 3 -2 0
3803 992 1 -1.1128 0.921128417705454 4.336997640515398 2.452025962350226 3 -2 0
905 26 1 -1.1128 4.595672645571642 0.7691054141243842 2.1082302558006223 3 -3 0
1803 325 2 0.5564 4.47873702445261 6.131649202253376 2.5054178086543395 -2 0 0
1146 106 2 0.5564 4.3648351876680715 3.3040470091936274 6.0217964363036875 -2 -2 0
1802 325 1 -1.1128 3.6117812083872742 5.800686378267213 2.740133724069678 -2 0 0
2955 709 2 0.5564 3.3414438340900445 2.921093893470008 4.100271791224994 -1 -1 0
2802 658 2 0.5564 2.4458486625946123 6.633229458284605 1.5504365583673454 3 1 0
1145 106 1 -1.1128 3.7483827503185396 2.574180245018121 5.962483333302417 -2 -2 0
1804 325 2 0.5564 3.7283601358756133 4.853470843191367 2.8137988442813455 -2 0 0
4124 1099 1 -1.1128 1.9341136362445324 -0.2019905687235803 6.673882329623678 0 4 0
2469 547 2 0.5564 3.662687418189758 -0.15350008864501138 6.582196552581637 -2 2 0
1536 236 2 0.5564 0.9447154908550869 1.4105384282042301 1.1840611612617882 7 7 0
3065 746 1 -1.1128 5.979605887128476 6.857607790611805 2.2270110555437457 -2 2 0
2109 427 2 0.5564 2.4733913622843953 3.5615913353940085 6.850123239188474 -3 -1 0
2110 427 2 0.5564 1.1013025343493557 4.154735435370951 6.610439426297639 -3 -1 0
2108 427 1 -1.1128 1.7420781190841659 3.9839508515316107 7.300711232273583 -3 -1 0
1535 236 1 -1.1128 0.7150012729616573 0.8198640553520465 1.9013968481300594 7 7 0
2468 547 1 -1.1128 4.5875508635948306 0.03800429397792736 6.737725648019554 -2 2 0
907 26 2 0.5564 5.232610740166171 1.0316972799548805 2.7727513038510807 3 -3 0
3766 979 2 0.5564 1.182885637155825 5.844249184594949 7.318291338553763 -2 0 0
906 26 2 0.5564 3.98231237608744 0.201357922558247 2.5747969778758315 3 -3 0
3615 929 2 0.5564 0.4377388178956199 0.8815269820303976 6.636762964671551 3 0 0
4126 1099 2 0.5564 2.065563853181592 -0.21611064298536084 5.7258526977159985 0 4 0
3764 979 1 -1.1128 1.358614096024807 6.779199491585542 7.424217691830715 -2 0 0
3717 963 2 0.5564 2.540878842033243 7.473969509829013 6.269848480478776 9 -1 0
2887 686 2 0.5564 1.8235823742056352 0.10770228941949136 3.1217534736199757 2 3 0
2956 709 2 0.5564 3.763149103412511 2.645905977790147 2.672569745721014 -1 -1 0
2801 658 1 -1.1128 1.9348517260353308 7.231725519291503 1.0055355324662378 3 1 0
3914 1029 1 -1.1128 1.5594283455496174 2.9520067204071383 0.16047269008425735 -1 3 0
3306 826 2 0.5564 0.42135106881544065 4.838225646882243 4.1354761686943 4 2 0
3718 963 2 0.5564 3.1135743044102124 6.786146813274725 5.048858494551566 9 -1 0
3863 1012 1 -1.1128 5.373783752296851 4.884566029870749 6.591565843943673 1 1 0
3865 1012 2 0.5564 4.877158365435573 5.4975369385115735 7.1336588740914095 1 1 0
3025 732 2 0.5564 -1.3888540408999095 2.6714133045717645 5.97007581707361 -1 0 0
3864 1012 2 0.5564 5.950626402759333 4.4325811250528835 7.207356285396896 1 1 0
2833 668 2 0.5564 6.010117152906995 0.937998268268966 5.053271197872862 -2 2 0
1921 364 2 0.5564 6.022801828677031 6.580356436062919 5.141152548589492 1 0 0
1537 236 2 0.5564 -0.03068531514544088 1.2406549223616437 2.3293251626024247 7 7 0
3307 826 2 0.5564 -0.5229672615238441 4.261760245972061 5.168845089871532 4 2 0
3305 826 1 -1.1128 0.2557980350007854 4.810832575528549 5.077853708754451 4 2 0
2976 716 2 0.5564 4.33324730785969 -0.29694207420204694 0.5270088176479113 0 -1 0
3614 929 1 -1.1128 -0.3835656009018337 1.3715277005437423 6.676668655286392 3 0 0
3413 862 1 -1.1128 -1.4699549321489909 2.5130268043575343 2.448957665939119 2 -2 0
4231 1134 2 0.5564 -1.3795632361483907 6.2816472648639445 2.041324881459206 -4 0 0
3716 963 1 -1.1128 3.113009959463276 7.621220204979719 5.516709644019535 9 -1 0
1117 96 2 0.5564 -0.5431680319287087 7.102091094649362 5.937568847779079 -1 -3 0
1919 364 1 -1.1128 5.946965781009792 7.531296159931802 5.06244271727526 1 0 0
3066 746 2 0.5564 5.954102225836737 7.787156171746668 2.4539962658143115 -2 2 0
1920 364 2 0.5564 5.012794135321599 7.707606790322369 5.174124674485591 1 0 0
2202 458 2 0.5564 1.0697669303659225 -0.6312678033288748 0.9993471558500086 6 -3 0
3915 1029 2 0.5564 2.5014826036863114 3.032220013219352 0.011029646850511188 -1 3 0
935 36 1 -1.1128 14.10930160449693 7.124001916101503 4.448980757744257 2 1 0
3782 985 1 -1.1128 6.8274477765913515 2.7782170999072053 0.07324212499565091 1 0 0
3067 746 2 0.5564 6.349759446301793 6.836127921906101 1.344538277472317 -2 2 0
1523 232 1 -1.1128 7.099625196326287 3.0253414805477665 2.8999993924123637 -2 2 0
1525 232 2 0.5564 7.91477321832835 3.489907120850367 3.0895905597217728 -2 2 0
4078 1083 2 0.5564 10.64267371588384 3.465126439823276 1.7367037687617957 3 1 0
2569 580 2 0.5564 10.975669874828997 0.8868145299376723 0.47664980984084787 -2 -1 0
1524 232 2 0.5564 7.178588136251163 2.7670844020618506 1.9816848970808965 -2 2 0
1245 139 2 0.5564 9.29885746819663 5.601876654704753 6.708645867977059 0 3 0
2567 580 1 -1.1128 11.712393468969863 0.34629830537964906 0.7618075605849227 -2 -1 0
1244 139 1 -1.1128 8.480364085463577 5.317150350974447 6.3021568093877915 0 3 0
1246 139 2 0.5564 8.561613944214377 4.365426875350309 6.240070677497706 0 3 0
1908 360 2 0.5564 12.379861677094617 4.362293384516503 4.233182858893012 -4 0 0
1692 288 2 0.5564 8.448187917175481 5.964802945116695 4.237626674753394 -3 2 0
1691 288 1 -1.1128 8.51541588818394 6.104039963755675 3.292996581385957 -3 2 0
1373 182 1 -1.1128 10.900706581337287 0.4809292418913941 3.4212763264537425 -2 -2 0
2216 463 1 -1.1128 8.458810686387945 2.6114028619843905 6.1792649891654134 -1 -2 0
1374 182 2 0.5564 10.595387662904129 1.3859759146793749 3.4837949276167617 -2 -2 0
3398 857 1 -1.1128 10.483683665337745 5.997627788211047 1.339354834745698 -2 0 0
1784 319 1 -1.1128 9.849638457052764 2.8804046366512988 3.7325196087811268 4 2 0
1786 319 2 0.5564 9.388801921343774 2.7311880747047677 4.558109260244643 4 2 0
1693 288 2 0.5564 7.61648416167604 6.272776238341403 3.0107128049197662 -3 2 0
2568 580 2 0.5564 11.713515960003473 0.42607082189424383 1.7156794462500988 -2 -1 0
1785 319 2 0.5564 10.615260206018483 3.4009002191272604 3.9757115686350586 4 2 0
1593 255 2 0.5564 11.589233653400864 5.7884519387651725 7.191410334286224 0 -2 0
3400 857 2 0.5564 11.311138953055918 5.73690608634047 1.7437975109742925 -2 0 0
1297 156 2 0.5564 13.814611137134747 -0.587234804773689 5.321433261879329 -1 0 0
1375 182 2 0.5564 11.54205547575879 0.39474985162730936 4.12659762895438 -2 -2 0
1295 156 1 -1.1128 12.917030676074445 -0.27665176238021577 5.202605728781227 -1 0 0
3399 857 2 0.5564 9.851708456077835 5.9881118022845765 2.05820766799487 -2 0 0
2217 463 2 0.5564 8.222119641374329 1.6892324360229931 6.080213480388612 -1 -2 0
2218 463 2 0.5564 9.14789051398837 2.612279187391753 6.8436454140473915 -1 -2 0
1909 360 2 0.5564 11.461918468793456 5.534925496448919 3.960762530825386 -4 0 0
1907 360 1 -1.1128 11.801317944396189 4.731662159891173 3.5660336735459404 -4 0 0
1083 85 2 0.5564 13.1346095904305 2.0784283782501207 5.760181235522482 5 0 0
4029 1067 2 0.5564 10.171576512935838 7.780659882271817 1.0138634977557393 -2 0 0
4077 1083 2 0.5564 10.954129666010944 3.7834046965299013 0.2897792864616496 3 1 0
2259 477 2 0.5564 13.036270867523188 2.8848564883607617 1.139706924826268 2 -2 0
1082 85 1 -1.1128 13.303387174457042 2.9914173763324574 5.52737776406836 5 0 0
2258 477 1 -1.1128 13.9534192068693 3.041817113531026 1.364292265600867 2 -2 0
3199 790 2 0.5564 12.073969884872547 7.44802487849856 4.448953259036276 -5 -3 0
1594 255 2 0.5564 10.951974461190197 6.743462528415204 6.204620022031009 0 -2 0
2831 668 1 -1.1128 6.570829433582298 0.6746436090323783 4.323560213431908 -2 2 0
3197 790 1 -1.1128 11.126559799260784 7.314530057303368 4.477716500856872 -5 -3 0
1592 255 1 -1.1128 10.88642271016846 6.432869451647806 7.107655653567357 0 -2 0
2095 422 2 0.5564 9.408533626715618 5.156449537722172 0.07378556647963738 -1 3 0
2832 668 2 0.5564 6.921399847502162 1.4969768689099787 3.9813546852368544 -2 2 0
1504 225 2 0.5564 8.826385427764174 -0.22197172434471318 0.4847323535947427 5 -2 0
2636 603 1 -1.1128 7.811259900651962 0.18527628429121815 7.357034144172382 0 -1 0
4076 1083 1 -1.1128 11.070953714236824 3.108539688166314 0.958465910692515 3 1 0
2260 477 2 0.5564 13.995814311648207 3.9778825094227357 1.5597920082714067 2 -2 0
2386 519 2 0.5564 13.954756869431476 -0.45024353797094135 2.120460031058485 -2 0 0
1503 225 2 0.5564 9.805351901775616 -0.6256835767656909 1.5666465285671742 5 -2 0
3783 985 2 0.5564 7.380550480343523 3.5594396136617314 0.07113612927212536 1 0 0
1563 245 2 0.5564 4.069685591695942 7.300128050220983 8.809536395048825 0 3 0
1014 62 2 0.5564 1.3579412292201225 5.817838774604925 12.034403774630864 3 0 0
3002 725 1 -1.1128 -0.5386162653902945 0.5102887924477563 14.101100793526461 3 2 0
1346 173 1 -1.1128 0.00936489578032369 7.7299171361200365 14.398012467094631 -3 5 0
2303 492 1 -1.1128 -0.4113644514740897 7.390210782319709 9.938124961334506 3 0 0
1013 62 1 -1.1128 1.3795743744156121 6.773703105488087 12.080113230788164 3 0 0
3616 929 2 0.5564 -0.5802836206049419 1.4344906880232484 7.611318128717992 3 0 0
1368 180 2 0.5564 2.8823185481168476 -0.4798567460174972 13.051109905090359 5 5 0
1207 126 2 0.5564 -1.120319568738928 2.4771646478041047 11.528660965728617 2 1 0
2315 496 1 -1.1128 5.817167762385361 0.9290368389747639 9.525665856642048 1 2 0
2317 496 2 0.5564 5.5939220500706455 0.7138268146090454 8.620083286109523 1 2 0
1205 126 1 -1.1128 -0.9178682149216667 1.550820174863704 11.39775856459577 2 1 0
2304 492 2 0.5564 0.1551066216102342 7.311476358330541 10.705683230176428 3 0 0
4017 1063 2 0.5564 3.863880260042975 5.376953055341143 10.205611057727598 2 -2 0
2241 471 2 0.5564 5.843534809792253 2.09016385501542 12.81385877767096 4 2 0
4355 1176 1 -1.1128 1.266623087467538 1.8239755434595253 9.24873678919156 -1 -1 0
4356 1176 2 0.5564 1.1535232896282983 2.1856125486879128 8.36972641664461 -1 -1 0
4357 1176 2 0.5564 1.5814795316412025 0.93193652710184 9.102562599601386 -1 -1 0
4339 1170 2 0.5564 1.446537545761052 3.28805290482327 11.961190945733144 -6 0 0
4018 1063 2 0.5564 4.1961243984324845 4.045068257416669 10.84404496855481 2 -2 0
3765 979 2 0.5564 0.6851522138973333 7.082497743159929 8.033062387413244 -2 0 0
1206 126 2 0.5564 -0.23408466600778677 1.5469357260966181 10.727937742271946 2 1 0
2240 471 1 -1.1128 5.529176161400294 1.2126975690118564 13.031723746386088 4 2 0
2242 471 2 0.5564 6.10432921201645 0.9204159850880296 13.738835172655643 4 2 0
1699 290 2 0.5564 4.231534177575864 1.9298082934717253 10.549625789156897 0 1 0
1697 290 1 -1.1128 3.4799407926101873 2.340594024974146 10.97693763806131 0 1 0
3169 780 2 0.5564 1.031459157964407 -0.07334552017051296 14.41181181912686 -1 2 0
1698 290 2 0.5564 2.718420856006034 1.9735508188569924 10.527939433780292 0 1 0
1369 180 2 0.5564 4.12841519864325 0.0477817345490021 12.372332035821392 5 5 0
4337 1170 1 -1.1128 1.108557213332274 4.039062276277536 11.473352303285232 -6 0 0