LAMMPS data file via write_data, version 2 Aug 2023, timestep = 5250000, units = real

3832 atoms
4 atom types
2000 bonds
1 bond types
1000 angles
1 angle types
0 impropers
1 improper types

-1.8420299999999998 30.08661 xlo xhi
-0.709 33.323 ylo yhi
-150 150 zlo zhi

Masses

1 15.9994
2 1.00794
3 12.0107
4 12.0107

Pair Coeffs # lj/cut/tip4p/long

1 0.1852 3.1589
2 0 0
3 0.0859 3.3997
4 0.0859 3.3997

Bond Coeffs # harmonic

1 5000 0.9572

Angle Coeffs # harmonic

1 500 104.52

Atoms # full

1 1 3 0 0 0 -14.519096394668605 0 0 0
2 1 3 0 -1.22802 0.709 -14.519096394668605 0 0 0
3 1 3 0 -1.22802 2.127 -14.519096394668605 0 0 0
4 1 3 0 0 2.836 -14.519096394668605 0 0 0
5 1 3 0 2.45605 0 -14.519096394668605 0 0 0
6 1 3 0 1.22802 0.709 -14.519096394668605 0 0 0
7 1 3 0 1.22802 2.127 -14.519096394668605 0 0 0
8 1 3 0 2.45605 2.836 -14.519096394668605 0 0 0
9 1 3 0 4.9121 0 -14.519096394668605 0 0 0
10 1 3 0 3.68407 0.709 -14.519096394668605 0 0 0
11 1 3 0 3.68407 2.127 -14.519096394668605 0 0 0
12 1 3 0 4.9121 2.836 -14.519096394668605 0 0 0
14 1 3 0 6.14012 0.709 -14.519096394668605 0 0 0
15 1 3 0 6.14012 2.127 -14.519096394668605 0 0 0
53 1 3 0 0 4.254 -14.519096394668605 0 0 0
54 1 3 0 -1.22802 4.963 -14.519096394668605 0 0 0
55 1 3 0 -1.22802 6.381 -14.519096394668605 0 0 0
56 1 3 0 0 7.09 -14.519096394668605 0 0 0
57 1 3 0 2.45605 4.254 -14.519096394668605 0 0 0
58 1 3 0 1.22802 4.963 -14.519096394668605 0 0 0
59 1 3 0 1.22802 6.381 -14.519096394668605 0 0 0
60 1 3 0 2.45605 7.09 -14.519096394668605 0 0 0
61 1 3 0 4.9121 4.254 -14.519096394668605 0 0 0
62 1 3 0 3.68407 4.963 -14.519096394668605 0 0 0
63 1 3 0 3.68407 6.381 -14.519096394668605 0 0 0
64 1 3 0 4.9121 7.09 -14.519096394668605 0 0 0
66 1 3 0 6.14012 4.963 -14.519096394668605 0 0 0
67 1 3 0 6.14012 6.381 -14.519096394668605 0 0 0
1837 336 2 0.5564 3.2225134081219227 2.7236643669145812 -9.27517010655381 -1 -3 0
3819 997 2 0.5564 -0.7300530462932444 7.271605440129743 -8.834041212150876 -1 0 0
2345 506 1 -1.1128 -0.33480361843966094 1.925802153079599 -11.354234712578727 0 0 0
2346 506 2 0.5564 -0.3935860078863128 1.9038509237456793 -10.399090804399687 0 0 0
2347 506 2 0.5564 0.5535569329154549 1.6259570486056902 -11.546955864835322 0 0 0
3153 775 2 0.5564 -0.5617307237224691 0.056853688846806215 -11.919409464808687 -5 0 0
2653 608 2 0.5564 4.52898703201276 6.130063394012525 -9.769411309745397 1 3 0
2297 490 1 -1.1128 -0.801419272296664 2.158528535064126 -8.606402123040017 1 2 0
2299 490 2 0.5564 -1.0942248776596464 3.068749122790451 -8.65109431878747 1 2 0
2298 490 2 0.5564 -0.14468557163222 2.151608664283057 -7.910064450329885 1 2 0
3525 899 2 0.5564 1.9587624463301974 0.4375909379383698 -7.145950020413127 -2 3 0
1150 107 2 0.5564 0.7123298860393109 6.2410514768548735 -12.08367727473332 -3 -3 0
2651 608 1 -1.1128 4.096448471517056 5.9916805114168605 -10.612025581551189 1 3 0
2652 608 2 0.5564 3.8722734680149355 6.871860839978365 -10.914122557159624 1 3 0
1316 163 1 -1.1128 1.6850506610149358 5.597973024649587 -9.101696161959994 2 1 0
1149 107 2 0.5564 0.733801023682775 5.782518766879324 -10.64104525667116 -3 -3 0
3352 841 2 0.5564 2.454937000912014 -0.35076519145081975 -2.5977847545627393 0 4 0
1835 336 1 -1.1128 3.6316930825718403 1.8730805402890442 -9.434270000545032 -1 -3 0
1836 336 2 0.5564 3.1897626942367565 1.2772691715945237 -8.82933960959731 -1 -3 0
3492 888 2 0.5564 4.782529464684861 1.2120163715398165 -10.751087135548664 3 -3 0
1148 107 1 -1.1128 0.1501000060066881 6.125669487891658 -11.317636511217742 -3 -3 0
1318 163 2 0.5564 1.5613839445288002 6.402752393041145 -8.598435753609765 2 1 0
3081 751 2 0.5564 -0.09003620715263219 4.270258919782368 -2.6804017284040746 3 2 0
3491 888 1 -1.1128 5.56788606214207 1.0490220918886335 -11.273470457019481 3 -3 0
2108 427 1 -1.1128 -0.22604170625411765 -0.0070773557029532655 -4.580317034683978 -2 0 0
1919 364 1 -1.1128 5.531547971355632 6.023808101014131 -8.3332263711079 -1 2 0
1064 79 1 -1.1128 8.253852424141408 7.762105198016593 -11.34158924662809 -2 -1 0
1180 117 2 0.5564 -1.3477578722067387 1.5555205478875418 -5.116456286898512 3 -3 0
1487 220 1 -1.1128 6.561334937382628 1.232273112283906 -5.842873719894371 0 -1 0
1178 117 1 -1.1128 -1.4866577626683712 2.5011564187324864 -5.168537469729751 3 -3 0
2109 427 2 0.5564 -0.6372254038325554 -0.18498572652500236 -3.7344392005892955 -2 0 0
1317 163 2 0.5564 2.577032639621462 5.662944613348709 -9.44285540594622 2 1 0
1950 374 2 0.5564 7.762222301465739 1.5495017505492519 -1.655833128247414 1 -2 0
3757 976 2 0.5564 13.297715750415188 5.899116399206909 -5.207897271736081 -1 3 0
3738 970 2 0.5564 5.975275695339132 4.6559812091625705 -11.59555815491612 1 1 0
2110 427 2 0.5564 -0.5555166719322773 -0.6963496527791062 -5.157017047118233 -2 0 0
3211 794 2 0.5564 12.647642402410211 1.748702950896462 -8.186275516622155 -3 1 0
2284 485 2 0.5564 5.183389943985535 4.353865813247075 -0.7290559168223162 3 1 0
2688 620 2 0.5564 9.16279688660502 5.67016240497415 -7.634886638662124 1 2 0
3493 888 2 0.5564 5.866986518374026 1.9197988932695145 -11.535238060850139 3 -3 0
3332 835 1 -1.1128 5.987037168199819 3.424073021893662 -8.729938357115715 2 -4 0
1570 247 2 0.5564 8.131718128236392 4.551734014779783 -10.918739867557417 2 0 0
1568 247 1 -1.1128 8.847312259647818 5.1145628006557935 -10.62313569441978 2 0 0
1490 221 1 -1.1128 11.328444505278773 3.8512373061425555 -11.436505203323403 -3 -2 0
3246 806 2 0.5564 8.527152308322796 1.4703369422909243 -9.651424950453132 -2 2 0
2055 409 2 0.5564 10.187548439239452 2.253919706515496 -11.159785307651129 3 -1 0
2054 409 1 -1.1128 9.831879651759266 1.3867132519320073 -10.965659870863586 3 -1 0
13 1 3 0 7.36814 0 -14.519096394668605 0 0 0
16 1 3 0 7.36814 2.836 -14.519096394668605 0 0 0
17 1 3 0 9.82419 0 -14.519096394668605 0 0 0
18 1 3 0 8.59617 0.709 -14.519096394668605 0 0 0
19 1 3 0 8.59617 2.127 -14.519096394668605 0 0 0
20 1 3 0 9.82419 2.836 -14.519096394668605 0 0 0
21 1 3 0 12.2802 0 -14.519096394668605 0 0 0
22 1 3 0 11.0522 0.709 -14.519096394668605 0 0 0
23 1 3 0 11.0522 2.127 -14.519096394668605 0 0 0
24 1 3 0 12.2802 2.836 -14.519096394668605 0 0 0
26 1 3 0 13.5083 0.709 -14.519096394668605 0 0 0
27 1 3 0 13.5083 2.127 -14.519096394668605 0 0 0
65 1 3 0 7.36814 4.254 -14.519096394668605 0 0 0
68 1 3 0 7.36814 7.09 -14.519096394668605 0 0 0
69 1 3 0 9.82419 4.254 -14.519096394668605 0 0 0
70 1 3 0 8.59617 4.963 -14.519096394668605 0 0 0
71 1 3 0 8.59617 6.381 -14.519096394668605 0 0 0
72 1 3 0 9.82419 7.09 -14.519096394668605 0 0 0
73 1 3 0 12.2802 4.254 -14.519096394668605 0 0 0
74 1 3 0 11.0522 4.963 -14.519096394668605 0 0 0
75 1 3 0 11.0522 6.381 -14.519096394668605 0 0 0
76 1 3 0 12.2802 7.09 -14.519096394668605 0 0 0
78 1 3 0 13.5083 4.963 -14.519096394668605 0 0 0
79 1 3 0 13.5083 6.381 -14.519096394668605 0 0 0
1569 247 2 0.5564 8.76344034286696 5.128598680434883 -9.669719921615902 2 0 0
3334 835 2 0.5564 6.825152883365457 2.9642387168868876 -8.681434831567183 2 -4 0
3737 970 1 -1.1128 6.487781578156737 3.9119401737664092 -11.279370829791734 1 1 0
3739 970 2 0.5564 6.2315841908276965 3.816555523695867 -10.36203923726929 1 1 0
1971 381 2 0.5564 11.487704260463957 6.754896994049275 -7.322231569934281 -1 1 0
3247 806 2 0.5564 7.457764118955649 0.8714996398173753 -8.7627733926046 -2 2 0
3171 781 2 0.5564 8.535694634030179 -0.04713820746727812 -11.307047873021164 -2 1 0
3245 806 1 -1.1128 8.0747915459155 1.6011939548031517 -8.818069825758872 -2 2 0
1492 221 2 0.5564 10.591491504879395 4.343606571089568 -11.074969496294509 -3 -2 0
1491 221 2 0.5564 12.068898398734143 4.455712594028371 -11.385776349920143 -3 -2 0
2865 679 2 0.5564 13.589494007407389 3.9301504124003315 -1.3047996926869376 -3 -1 0
1381 184 2 0.5564 12.508181462864817 0.6649096088590843 -10.351651938839744 1 0 0
2056 409 2 0.5564 10.602064106231875 0.8430573242908099 -10.799869185686282 3 -1 0
2789 654 1 -1.1128 13.31082599940615 2.191750305788444 -9.87217097004248 3 0 0
1920 364 2 0.5564 5.847320646407616 5.141259993976916 -8.5272084242994 -1 2 0
1921 364 2 0.5564 5.695875015443403 6.137125277224473 -7.397070307969036 -1 2 0
3303 825 2 0.5564 13.32614687617624 5.590410475603484 -10.200445153031495 -4 0 0
2790 654 2 0.5564 12.647355123883523 2.8120596846950394 -10.174258121604533 3 0 0
2687 620 1 -1.1128 8.340707080171008 5.28161715603677 -7.93394233755912 1 2 0
3333 835 2 0.5564 5.331080921941917 2.727035557791691 -8.739627013271223 2 -4 0
2689 620 2 0.5564 7.7835186787265895 6.0310345310197455 -8.144062421592439 1 2 0
3133 768 2 0.5564 -0.04888511660035327 0.4066741633958654 -1.0440864732555621 0 -2 0
2620 597 2 0.5564 8.190234533422874 3.1135867018140555 -0.13602216015631416 3 3 0
3283 818 2 0.5564 3.9334223104329333 4.73589358384332 -7.5535108584080035 -3 0 0
3281 818 1 -1.1128 3.2363720259776554 4.1038045919493396 -7.729056631799279 -3 0 0
3282 818 2 0.5564 2.482173689226372 4.6400427581418455 -7.973731579372689 -3 0 0
1453 208 2 0.5564 6.476467404265155 3.357907664579126 -5.345219656011033 1 -3 0
3131 768 1 -1.1128 0.46417825669068663 0.8117050559300197 -0.3448338880459567 0 -2 0
3351 841 2 0.5564 1.7830259566635824 -0.23322181187147206 -1.2462558447925882 0 4 0
3526 899 2 0.5564 1.3337893403407548 -0.4598796363965234 -8.192779739855006 -2 3 0
1451 208 1 -1.1128 6.6017720343742265 4.054267751343093 -4.700535277888737 1 -3 0
2247 473 2 0.5564 11.726573145836173 7.115638592684896 -10.59445967428704 -3 -2 0
3109 760 2 0.5564 1.8561427269767146 2.169016415237248 -5.796478005953052 1 0 0
3107 760 1 -1.1128 1.601403111631838 2.1241003390202216 -6.718065893120495 1 0 0
1134 102 2 0.5564 0.21268823599336717 6.514764239133853 -6.685952309756852 -5 0 0
1441 204 2 0.5564 2.495076780114181 0.912535025928352 -3.994320857421534 1 1 0
3755 976 1 -1.1128 13.416309046168381 5.431248244501985 -6.034497478978698 -1 3 0
980 51 1 -1.1128 -1.2000049267372823 -0.5654705756085142 -1.9722289853843264 3 2 0
1986 386 2 0.5564 1.5484117332955425 2.6327533108693233 -0.2412501173525253 2 1 0
3108 760 2 0.5564 2.229608251331417 2.68864774091987 -7.168484751380936 1 0 0
1509 227 2 0.5564 1.82434850600377 6.093809435540176 -1.5284589362664582 -2 1 0
1439 204 1 -1.1128 2.441103914628813 -0.017666826233646616 -4.213511684926886 1 1 0
3457 876 2 0.5564 5.260913103687043 3.8532635857858817 -3.4516693882926286 -3 4 0
3455 876 1 -1.1128 4.513339398270765 3.6747459004982277 -2.881142446081586 -3 4 0
3040 737 2 0.5564 0.06937355459430397 6.677830644293416 -3.0133552578452862 2 2 0
3456 876 2 0.5564 4.758849845701206 2.8814806796507604 -2.405023334142061 -3 4 0
3082 751 2 0.5564 -0.027766393844500716 2.988535739583078 -1.8771551620451348 3 2 0
3080 751 1 -1.1128 -0.2475441200988893 3.3282926031406985 -2.744620093076223 3 2 0
2932 701 2 0.5564 2.8409456599571516 3.063603680285698 -3.4465253342940305 3 -2 0
2328 500 2 0.5564 7.3346916252935115 6.7583019652918255 -0.19563456619391717 -3 0 0
2930 701 1 -1.1128 2.0794068859683215 2.711015016429642 -3.90693230457676 3 -2 0
2931 701 2 0.5564 1.3291193030681783 3.006730306151303 -3.391318848039834 3 -2 0
2246 473 1 -1.1128 11.168088304524415 7.575579831599536 -11.221182125543855 -3 -2 0
1379 184 1 -1.1128 11.98168128902303 -0.09918535170531198 -10.586577094977784 1 0 0
1985 386 1 -1.1128 2.189735019326073 3.17067094292047 -0.7055607810303921 2 1 0
1508 227 1 -1.1128 2.716650267463394 5.83995112977356 -1.2926839356040016 -2 1 0
3771 981 2 0.5564 8.702658708937177 7.165226332207717 -2.185242635318199 3 3 0
1489 220 2 0.5564 6.256181655412608 0.8144789400965469 -6.648207807391626 0 -1 0
1440 204 2 0.5564 1.5518016493071471 -0.13423213662021394 -4.547864615102574 1 1 0
937 36 2 0.5564 4.742958378157536 1.0710205547074085 -0.13619827135387882 -4 7 0
2864 679 1 -1.1128 13.120889193310411 3.522453621045801 -2.033102957417247 -3 -1 0
1179 117 2 0.5564 -1.1313648533978895 2.8414868646537403 -4.347455902731518 3 -3 0
1794 322 2 0.5564 -0.4220232929617237 4.282031571874304 -5.991960174025938 2 -2 0
3818 997 1 -1.1128 -1.5185777870322792 7.134009277892871 -9.35895062283043 -1 0 0
3810 994 2 0.5564 13.0334934515214 6.038794211449408 -7.669768070883079 -3 -3 0
1793 322 1 -1.1128 -0.3522652430032519 5.182648677483605 -5.675326366424286 2 -2 0
1510 227 2 0.5564 2.7190405291798276 4.88483521012671 -1.3558143938665717 -2 1 0
2646 606 2 0.5564 4.152659638289037 5.891660474035138 -3.7621457642405676 3 -4 0
2841 671 2 0.5564 11.821314389620401 2.1492643188758205 -1.8481425425786149 -3 2 0
1972 381 2 0.5564 10.878526627711086 7.628545237418076 -6.24634245845356 -1 1 0
2840 671 1 -1.1128 10.969150950391438 1.7137342675817278 -1.867280241945231 -3 2 0
3675 949 2 0.5564 6.888296889114698 -0.5061670390413942 -2.326647653168472 1 3 0
1617 263 2 0.5564 12.784746466001284 5.091625971955361 -2.8647248434509547 -3 5 0
3038 737 1 -1.1128 0.5276520905500515 5.837843710544802 -2.9880815245563275 2 2 0
3260 811 1 -1.1128 5.534498926060626 6.271262768930808 -5.62724694638208 1 1 0
1244 139 1 -1.1128 11.386973317383866 0.44499645685072475 -4.376728557761922 3 1 0
1015 62 2 0.5564 9.746236548769403 3.634548313789263 -4.375570420961244 1 -2 0
1970 381 1 -1.1128 10.702056468997663 6.857296079258327 -6.7851051627185015 -1 1 0
2866 679 2 0.5564 13.803408549206175 3.0874304086577533 -2.544139991668434 -3 -1 0
1452 208 2 0.5564 7.542429624520303 4.05086440072669 -4.523373469147869 1 -3 0
3302 825 1 -1.1128 13.467546221215136 5.479628367927162 -11.140640647241735 -4 0 0
3350 841 1 -1.1128 2.568499209802991 -0.5742639669714642 -1.6739912444495586 0 4 0
936 36 2 0.5564 4.053903469096287 0.9579181745436386 -1.4794434186175303 -4 7 0
1987 386 2 0.5564 3.00096969235489 2.6640929270270735 -0.6666792950936908 2 1 0
3809 994 1 -1.1128 12.70573537454323 6.536275279901393 -8.418981306064946 -3 -3 0
2645 606 1 -1.1128 3.8850580514575266 6.740173503365395 -3.4090898490900523 3 -4 0
3770 981 1 -1.1128 8.597509606095718 7.57997866970572 -3.0414900956595208 3 3 0
2842 671 2 0.5564 11.029297185955157 1.0389026526068257 -1.1910981296479695 -3 2 0
935 36 1 -1.1128 4.555632135342579 1.564408567354756 -0.9347664408149924 -4 7 0
1949 374 1 -1.1128 8.3031021863522 2.33858032162211 -1.6880752700730384 1 -2 0
1304 159 1 -1.1128 9.951553811126935 5.431524762486173 -4.538256385052061 3 -1 0
1013 62 1 -1.1128 9.318251352344948 2.779314140359305 -4.416109756251345 1 -2 0
3378 850 2 0.5564 12.31742219647214 7.273893175602291 -2.1690776797499605 -2 -3 0
3674 949 1 -1.1128 7.047871871774518 -0.2469551709702217 -1.4191353337974406 1 3 0
1133 102 1 -1.1128 0.2726583301777159 7.364125298986665 -7.123245296660298 -5 0 0
1951 374 2 0.5564 9.203088610396799 2.014050116816722 -1.6573820573256501 1 -2 0
3268 813 2 0.5564 9.167366443405072 1.2656952204547764 -7.305200529190045 4 -1 0
3262 811 2 0.5564 5.98488017870683 5.457901071445606 -5.399564334624962 1 1 0
3811 994 2 0.5564 13.344449647573791 7.239155942526994 -8.538292320289111 -3 -3 0
1305 159 2 0.5564 9.379323235304343 6.042138064799144 -4.073565331353794 3 -1 0
3266 813 1 -1.1128 9.749335820401603 1.0456497274128624 -6.577791544321008 4 -1 0
3267 813 2 0.5564 9.624278230971779 1.7549810942057942 -5.947361633733867 4 -1 0
3261 811 2 0.5564 6.0283600954001715 6.954188050631606 -5.173432827904804 1 1 0
2248 473 2 0.5564 11.65378893937359 7.541820308748168 -12.045310338972978 -3 -2 0
1616 263 1 -1.1128 12.54727823412192 5.935222710871408 -3.2496739222611515 -3 5 0
1618 263 2 0.5564 11.701520547105206 5.777916302254261 -3.6694128201196854 -3 5 0
1066 79 2 0.5564 7.940393371532827 6.8583534362752525 -11.306827986448283 -2 -1 0
3039 737 2 0.5564 0.5933127488920102 5.572591359372121 -3.905449996035444 2 2 0
3762 978 2 0.5564 -1.4939729624392175 6.850834979757114 -0.8534947470324199 -1 3 0
1245 139 2 0.5564 11.164541047481393 0.8363432396594439 -5.221479718141499 3 1 0
1014 62 2 0.5564 8.993393886877767 2.63118778491344 -3.5279873142255918 1 -2 0
1246 139 2 0.5564 10.883017243279408 0.94965447562362 -3.7383070933424523 3 1 0
2327 500 1 -1.1128 8.28330253599024 6.6303853299601085 -0.19270787188830793 -3 0 0
3209 794 1 -1.1128 12.4663961336436 1.2261460691190265 -7.405047168796752 -3 1 0
3172 781 2 0.5564 7.147063150423254 -0.43378454427712576 -11.769761203082835 -2 1 0
3820 997 2 0.5564 -1.1911779475290174 6.931817032702073 -10.235399703078818 -1 0 0
3210 794 2 0.5564 11.513054287344152 1.2430591245631402 -7.320867056195018 -3 1 0
1306 159 2 0.5564 10.049819116502754 5.81173603303116 -5.411193138068616 3 -1 0
1488 220 2 0.5564 6.536091132274055 0.5357908289283737 -5.186742083745701 0 -1 0
2647 606 2 0.5564 3.3724928541472563 6.525015841297 -2.629848310967109 3 -4 0
3524 899 1 -1.1128 2.178165222980436 -0.20393798427167234 -7.821624461533242 -2 3 0
1795 322 2 0.5564 -1.2319552098599271 5.396565055399646 -5.364488021294068 2 -2 0
3761 978 1 -1.1128 -1.3183935880045987 6.286381884825879 -0.100635091950966 -1 3 0
1065 79 2 0.5564 9.202744025664622 7.683392573334429 -11.439783570753622 -2 -1 0
1998 390 2 0.5564 5.4874877351498315 7.7579721026180035 -3.615362734833898 0 3 0
1380 184 2 0.5564 12.563101883216452 -0.6343840417044362 -11.126711090282324 1 0 0
2226 466 2 0.5564 1.8752599766760154 5.043899973987184 2.446816194985866 3 1 0
1397 190 1 -1.1128 0.5564886202668661 2.6079853775994546 8.07117941768079 1 2 0
1399 190 2 0.5564 0.3130224651291519 3.4137347913527103 8.526949010491814 1 2 0
2227 466 2 0.5564 1.789427511570851 4.896671358019669 0.9425364606161899 3 1 0
2225 466 1 -1.1128 1.2646089138345598 5.113815744419259 1.7130214948011757 3 1 0
2963 712 1 -1.1128 -1.0609338610063366 5.149608793793956 3.155150472437692 4 3 0
2448 540 2 0.5564 11.535660262554918 -0.3818255287573877 13.724825434179898 1 4 0
1674 282 2 0.5564 2.910454150925545 0.3478103698455438 13.24957402879297 -1 1 0
2883 685 2 0.5564 1.1466012426585093 6.646848840186959 8.282237973197482 -1 -1 0
3827 1000 1 -1.1128 4.624736580296799 -0.30844695703827224 3.0562573507488526 -1 3 0
2138 437 1 -1.1128 3.3509440326970306 0.6531787779271107 6.165492217810706 3 1 0
3116 763 1 -1.1128 1.592242065993476 2.7961685604334727 5.651149478975752 3 1 0
1390 187 2 0.5564 2.379175300478261 5.844853929603782 4.304988689378538 2 -3 0
1388 187 1 -1.1128 2.6769895430484434 4.955995716625391 4.111414581298185 2 -3 0
1389 187 2 0.5564 3.632000199249518 5.0198382334151495 4.100845794895965 2 -3 0
863 12 1 -1.1128 3.4485098733648463 4.43567959771271 7.439612507867034 0 1 0
2140 437 2 0.5564 3.6046110009949808 0.20276261675801582 6.971104536212052 3 1 0
1336 169 2 0.5564 -0.5713199390905142 2.4677310826255354 10.535063933445295 -2 1 0
2232 468 2 0.5564 5.303007286075941 4.369985268834013 3.585884648950901 4 -1 0
2231 468 1 -1.1128 5.444073049248229 5.037717004220248 4.257059078134204 4 -1 0
2964 712 2 0.5564 -0.2570529271500136 5.041657448388311 2.646857348631932 4 3 0
2995 722 2 0.5564 0.2083074744244764 -0.061443682900110534 6.253361308762688 -1 1 0
1003 58 2 0.5564 -0.6813857993710678 6.6118621549489225 9.645215463114651 2 2 0
3117 763 2 0.5564 2.088891074838343 1.9857385794323434 5.538108065935633 3 1 0
2139 437 2 0.5564 4.155640496426104 0.6918061154485979 5.648568899301122 3 1 0
865 12 2 0.5564 3.069965039216984 4.227009241863292 6.585567551115188 0 1 0
2376 516 2 0.5564 5.167193217569957 3.9158170805116694 7.037933972297751 2 2 0
912 28 2 0.5564 1.6677201687435923 6.937957805123296 0.8589544743722014 -1 2 0
3056 743 1 -1.1128 5.025361803962254 2.973708739751621 2.388058898704592 -2 1 0
2965 712 2 0.5564 -1.714726338853327 4.6344490993753915 2.6824983477151823 4 3 0
3799 990 2 0.5564 2.6752773615083227 7.263684766246494 12.708747725262699 4 3 0
2487 553 2 0.5564 13.822595530762817 2.0011814204730767 14.093244454159397 2 0 0
2604 592 2 0.5564 2.4313848316737023 0.930108801539102 2.355971721332515 2 -2 0
2882 685 1 -1.1128 0.3869427382701935 6.074313455092754 8.175669798734717 -1 -1 0
1964 379 1 -1.1128 13.94157499480988 -0.12023053270561883 10.956309320138393 2 1 0
439 2 4 0 11.0522 2.127 16.74620659931785 0 0 0
3814 995 2 0.5564 -0.9697587601230573 4.331697115424241 0.3610039485409364 0 2 0
2603 592 1 -1.1128 2.455446925991619 1.8867982265012209 2.3760102975081554 2 -2 0
480 2 4 0 4.9121 7.09 16.74620659931785 0 0 0
492 2 4 0 12.2802 7.09 16.74620659931785 0 0 0
438 2 4 0 11.0522 0.709 16.74620659931785 0 0 0
1554 242 2 0.5564 -0.10125110034115167 2.5429701242983054 3.525704888785934 0 -4 0
2605 592 2 0.5564 1.5440053657370327 2.147040284867991 2.5093743330365093 2 -2 0
3216 796 2 0.5564 8.019094779938282 2.118363474692662 1.7988187492477248 -4 3 0
1555 242 2 0.5564 -0.6661518122478085 1.352762185600036 2.7799236381426913 0 -4 0
2377 516 2 0.5564 5.951200918554061 4.334356965892548 5.812350162840894 2 2 0
2353 508 2 0.5564 6.310660876341106 1.9049261453440076 5.759622137814558 3 -1 0
3118 763 2 0.5564 1.9124766473716577 3.372638423857503 4.95734270518188 3 1 0
3057 743 2 0.5564 5.674938767848795 2.283343630952077 2.5210235199265227 -2 1 0
2233 468 2 0.5564 6.134811969219132 5.595466999637716 3.8992494328912057 4 -1 0
1553 242 1 -1.1128 -0.164557645616646 2.157865150545833 2.651679405517851 0 -4 0
2375 516 1 -1.1128 5.955435881114208 3.708048239010339 6.536196990488691 2 2 0
3058 743 2 0.5564 4.196714640425789 2.5063880058767465 2.282256270904039 -2 1 0
2282 485 1 -1.1128 5.508424882438185 4.66253482936597 0.11670283507290431 3 1 0
2351 508 1 -1.1128 5.942187246640382 1.051466577945684 5.531439549870323 3 -1 0
2994 722 2 0.5564 0.1907642297468045 1.006303277092385 7.326445485468824 -1 1 0
2993 722 1 -1.1128 0.16419744190247412 0.057582694734068865 7.202109342904974 -1 1 0
1673 282 1 -1.1128 3.820042973039173 0.553909184177509 13.464995190662156 -1 1 0
434 2 4 0 8.59617 0.709 16.74620659931785 0 0 0
3828 1000 2 0.5564 5.4746090649471855 0.11009357588486957 3.19327299407146 -1 3 0
1378 183 2 0.5564 -1.3911926694347343 0.3252541882140424 8.00247981591207 -3 -1 0
433 2 4 0 9.82419 0 16.74620659931785 0 0 0
481 2 4 0 7.36814 4.254 16.74620659931785 0 0 0
440 2 4 0 12.2802 2.836 16.74620659931785 0 0 0
2017 396 2 0.5564 12.604461775521303 6.70310249243973 1.882840945153101 1 1 0
2910 694 2 0.5564 8.224319938523983 7.328004227185604 4.685642472212101 0 -2 0
1348 173 2 0.5564 13.625297644864979 -0.6821200840239998 8.486743802247494 0 -3 0
2130 434 2 0.5564 7.709977670936778 0.9103976070886399 9.059480593999783 -2 0 0
2015 396 1 -1.1128 12.10156491127412 6.278615940671432 1.1877577587208752 1 1 0
2691 621 2 0.5564 9.547772823068968 -0.6853764601180453 12.278588887819614 2 0 0
2283 485 2 0.5564 5.198151616464358 4.010836728688057 0.7453971996303339 3 1 0
2728 633 2 0.5564 12.16529538343999 2.4445009693273048 2.819984679664361 2 0 0
1576 249 2 0.5564 9.669681386573687 0.9782375494448522 4.96355184183419 2 0 0
1574 249 1 -1.1128 9.449832704890746 1.7675880399052024 4.468751412985573 2 0 0
2524 565 2 0.5564 10.589355633444157 5.554576207901622 1.994670080697142 -1 0 0
437 2 4 0 12.2802 0 16.74620659931785 0 0 0
1575 249 2 0.5564 10.163274184607571 1.8616579942187013 3.837572213497679 2 0 0
2726 633 1 -1.1128 11.672389088183015 1.6345961435089291 2.688326618278742 2 0 0
2727 633 2 0.5564 11.436703859354942 1.645204685350525 1.7606558906327252 2 0 0
2522 565 1 -1.1128 9.83224129636185 5.287396903511752 2.5158487077190896 -1 0 0
2523 565 2 0.5564 9.531093569018525 4.477526955101043 2.1039591362894567 -1 0 0
934 35 2 0.5564 11.567227482025912 3.4295793528257357 6.093889553567045 2 5 0
1564 245 2 0.5564 11.047542473442315 0.1520211700507371 7.465115539525257 0 4 0
1562 245 1 -1.1128 11.311039742253037 1.0406142726313348 7.704291555300426 0 4 0
1563 245 2 0.5564 10.985037054407261 1.155544621484149 8.596897672007094 0 4 0
1952 375 1 -1.1128 12.882707482221097 3.585884662141523 1.0106465190900156 -1 4 0
2807 660 1 -1.1128 7.961434949792441 -0.03611632087562347 7.375531018844049 2 2 0
3217 796 2 0.5564 8.033783401262715 1.7633643538097905 3.270437052846047 -4 3 0
1954 375 2 0.5564 12.450894209292303 4.42949034029911 1.1451902689047309 -1 4 0
3071 748 1 -1.1128 11.162406089367506 6.601242985560719 5.242460298736845 0 3 0
2911 694 2 0.5564 8.601893231177641 6.510401407844576 3.4687351375580557 0 -2 0
2909 694 1 -1.1128 7.8483650993016685 6.884844254476744 3.9250500923187683 0 -2 0
3073 748 2 0.5564 10.750893834416855 6.00503268222152 5.8681004743024 0 3 0
933 35 2 0.5564 12.170107373491838 2.144194658867526 6.6194558781260655 2 5 0
932 35 1 -1.1128 12.37096605129746 2.9098882542713636 6.08130873331296 2 5 0
3072 748 2 0.5564 10.980401639770099 6.213761405081626 4.386325691413621 0 3 0
2352 508 2 0.5564 6.1980546463839765 0.4785704188657761 6.2543189683132265 3 -1 0
3427 866 2 0.5564 12.35461863414389 -0.1765299640864293 3.1933070971877475 0 1 0
494 2 4 0 13.5083 4.963 16.74620659931785 0 0 0
2016 396 2 0.5564 11.918742031380132 6.979220680126723 0.5616888302577422 1 1 0
1458 210 2 0.5564 9.324400819478663 3.802681258129805 5.937252827521405 2 -2 0
1457 210 1 -1.1128 9.52073195631861 4.581290516201658 6.458266071440219 2 -2 0
485 2 4 0 9.82419 4.254 16.74620659931785 0 0 0
487 2 4 0 8.59617 6.381 16.74620659931785 0 0 0
2329 500 2 0.5564 8.400524498842747 5.709181249096246 0.039403039678639416 -3 0 0
443 2 4 0 13.5083 2.127 16.74620659931785 0 0 0
488 2 4 0 9.82419 7.09 16.74620659931785 0 0 0
1334 169 1 -1.1128 -1.3417683088209371 1.98143336657855 10.828594796094489 -2 1 0
3215 796 1 -1.1128 7.54882049670201 1.6099477343815807 2.459566711025167 -4 3 0
435 2 4 0 8.59617 2.127 16.74620659931785 0 0 0
3813 995 2 0.5564 -0.6148019535217693 3.0411863744510566 1.0684543656791174 0 2 0
491 2 4 0 11.0522 6.381 16.74620659931785 0 0 0
1495 222 2 0.5564 -0.46847232911642145 2.944149426750224 5.942809439707231 0 2 0
3132 768 2 0.5564 0.18254438208518808 0.36109800281208077 0.4513270143420885 0 -2 0
864 12 2 0.5564 2.816587440944985 5.030597486018701 7.843321158824603 0 1 0
1076 83 1 -1.1128 -0.5511465149879912 6.559898999721237 13.265688766095703 -5 1 0
442 2 4 0 13.5083 0.709 16.74620659931785 0 0 0
2981 718 1 -1.1128 2.8509398977107248 7.0406203440067 9.21147162292798 -1 5 0
3798 990 2 0.5564 3.6689728517558726 6.123719084246084 12.779072735945434 4 3 0
2677 616 2 0.5564 11.17678376295873 7.207891747089769 13.341014451986974 -1 3 0
2982 718 2 0.5564 3.7367121801251733 7.224464472382831 8.89867152933313 -1 5 0
1077 83 2 0.5564 -0.32540763996747757 5.640839455311571 13.409232641863936 -5 1 0
490 2 4 0 11.0522 4.963 16.74620659931785 0 0 0
1398 190 2 0.5564 1.1281406150354516 2.897778326665768 7.360212656721931 1 2 0
2449 540 2 0.5564 10.957208343761923 0.9431602583487804 13.275706485093666 1 4 0
489 2 4 0 12.2802 4.254 16.74620659931785 0 0 0
967 46 2 0.5564 1.9317389085845718 1.8926964882567503 9.145926257448592 1 0 0
2004 392 2 0.5564 3.15658626847175 2.983554587552263 10.735128440050454 4 1 0
1078 83 2 0.5564 -0.7712658606596611 6.610500222414391 12.335516014813045 -5 1 0
2526 566 2 0.5564 1.417746847220272 3.43845237954932 13.983060400453441 -2 -3 0
2596 589 2 0.5564 0.4473467390630045 3.9184452474349993 11.707721849507848 -2 0 0
2527 566 2 0.5564 -0.01027563806423973 2.944778841327937 13.888519873096905 -2 -3 0
2003 392 1 -1.1128 3.60963530834152 3.6488074818017573 11.253222245128919 4 1 0
2005 392 2 0.5564 3.0790065653519463 4.4383315546850675 11.14683538546389 4 1 0
3355 842 2 0.5564 6.492208694423431 6.706936688853788 10.61633630808939 -1 -2 0
3548 907 1 -1.1128 6.441864603554357 3.6047549637461955 11.065516652619568 0 4 0
3550 907 2 0.5564 5.495912251372386 3.667363715668562 11.197786918568887 0 4 0
3763 978 2 0.5564 -1.0564766521046791 6.88912401725781 0.5953076573095611 -1 3 0
2594 589 1 -1.1128 0.513442660986585 4.069396323815243 10.764810950032354 -2 0 0
1994 389 1 -1.1128 5.3848989478936655 6.947725178616822 7.9455554655120135 0 -1 0
965 46 1 -1.1128 2.313233045462772 1.4626152742287413 9.911255224824476 1 0 0
2595 589 2 0.5564 -0.10890566478285676 4.775489933842382 10.59060054322035 -2 0 0
1320 164 2 0.5564 1.339595110134444 0.46330583488551513 11.365987607523065 2 3 0
1319 164 1 -1.1128 1.2936516489953862 -0.011477353481209103 12.195870350897083 2 3 0
1321 164 2 0.5564 0.9100078246667149 0.614802572128394 12.809733150497294 2 3 0
2703 625 2 0.5564 3.277505246747641 3.486345998500355 12.991916720736473 3 0 0
2702 625 1 -1.1128 3.284747916291638 3.1535403702495057 13.88936953424342 3 0 0
2704 625 2 0.5564 3.529115804753941 2.23221976679973 13.8017043127034 3 0 0
1008 60 2 0.5564 7.189795871094744 4.1772782584538595 9.415009757753149 2 2 0
3549 907 2 0.5564 6.820645302738905 4.002820165442861 11.849293948047206 0 4 0
436 2 4 0 9.82419 2.836 16.74620659931785 0 0 0
2525 566 1 -1.1128 0.583458593976252 3.613834444158599 13.547814995913795 -2 -3 0
966 46 2 0.5564 3.0699697861484 0.9878889437317464 9.567424389617091 1 0 0
486 2 4 0 8.59617 4.963 16.74620659931785 0 0 0
1009 60 2 0.5564 6.992654972006001 3.9847815201988253 7.926392514618907 2 2 0
1106 93 1 -1.1128 5.046250777472311 5.38102286121658 13.8101801041751 -3 -2 0
1606 259 2 0.5564 5.258137139445912 1.1787484363009435 12.363429438546625 4 1 0
3783 985 2 0.5564 -1.5849038502558264 0.7066569754094076 13.726120848764136 2 -2 0
834 2 2 0.5564 1.8208788662304203 -0.28281092510414196 5.204764921845893 -3 1 0
2304 492 2 0.5564 -1.2603768545827647 7.170307790003369 5.713247792436155 -1 -2 0
2983 718 2 0.5564 2.9798210774340737 6.5922289939907515 10.04727605228283 -1 5 0
2185 452 2 0.5564 5.289188953271075 0.11382537882135466 9.8518284276141 3 0 0
2183 452 1 -1.1128 4.650790590732857 -0.40297256987362373 9.360298150532925 3 0 0
1605 259 2 0.5564 5.986153949392772 2.0786965448938233 11.387733121544713 4 1 0
1604 259 1 -1.1128 5.742793688860693 1.1652431283122644 11.538106114204586 4 1 0
3797 990 1 -1.1128 3.151732705164873 6.6399571261782775 12.160853065338634 4 3 0
471 2 4 0 -1.22802 6.381 16.74620659931785 0 0 0
429 2 4 0 7.36814 0 16.74620659931785 0 0 0
3576 916 2 0.5564 13.883228079620167 6.062594622929475 12.054182894373756 1 1 0
2129 434 1 -1.1128 8.036702371341187 1.2720473307712186 9.883309229245745 -2 0 0