LAMMPS data file via write_data, version 2 Aug 2023, timestep = 6250000, units = real

5032 atoms
4 atom types
2800 bonds
1 bond types
1400 angles
1 angle types
0 impropers
1 improper types

-1.8420299999999998 30.08661 xlo xhi
-0.709 33.323 ylo yhi
-150 150 zlo zhi

Masses

1 15.9994
2 1.00794
3 12.0107
4 12.0107

Pair Coeffs # lj/cut/tip4p/long

1 0.1852 3.1589
2 0 0
3 0.0859 3.3997
4 0.0859 3.3997

Bond Coeffs # harmonic

1 5000 0.9572

Angle Coeffs # harmonic

1 500 104.52

Atoms # full

1 1 3 0 0 0 -19.086524130372066 0 0 0
2 1 3 0 -1.22802 0.709 -19.086524130372066 0 0 0
3 1 3 0 -1.22802 2.127 -19.086524130372066 0 0 0
4 1 3 0 0 2.836 -19.086524130372066 0 0 0
5 1 3 0 2.45605 0 -19.086524130372066 0 0 0
6 1 3 0 1.22802 0.709 -19.086524130372066 0 0 0
7 1 3 0 1.22802 2.127 -19.086524130372066 0 0 0
8 1 3 0 2.45605 2.836 -19.086524130372066 0 0 0
9 1 3 0 4.9121 0 -19.086524130372066 0 0 0
10 1 3 0 3.68407 0.709 -19.086524130372066 0 0 0
11 1 3 0 3.68407 2.127 -19.086524130372066 0 0 0
12 1 3 0 4.9121 2.836 -19.086524130372066 0 0 0
14 1 3 0 6.14012 0.709 -19.086524130372066 0 0 0
15 1 3 0 6.14012 2.127 -19.086524130372066 0 0 0
53 1 3 0 0 4.254 -19.086524130372066 0 0 0
54 1 3 0 -1.22802 4.963 -19.086524130372066 0 0 0
55 1 3 0 -1.22802 6.381 -19.086524130372066 0 0 0
56 1 3 0 0 7.09 -19.086524130372066 0 0 0
57 1 3 0 2.45605 4.254 -19.086524130372066 0 0 0
58 1 3 0 1.22802 4.963 -19.086524130372066 0 0 0
59 1 3 0 1.22802 6.381 -19.086524130372066 0 0 0
60 1 3 0 2.45605 7.09 -19.086524130372066 0 0 0
61 1 3 0 4.9121 4.254 -19.086524130372066 0 0 0
62 1 3 0 3.68407 4.963 -19.086524130372066 0 0 0
63 1 3 0 3.68407 6.381 -19.086524130372066 0 0 0
64 1 3 0 4.9121 7.09 -19.086524130372066 0 0 0
66 1 3 0 6.14012 4.963 -19.086524130372066 0 0 0
67 1 3 0 6.14012 6.381 -19.086524130372066 0 0 0
1205 126 1 -1.1128 4.375013387625865 6.6114895248654095 -15.788805946339835 1 4 0
2817 663 2 0.5564 14.07803770115329 2.4163844273501556 -9.558108463866102 3 0 0
3826 999 2 0.5564 -0.1774011929301334 6.140411408469982 -16.397962833175 1 0 0
1887 353 2 0.5564 1.9296380281517804 4.618973846766819 -16.191494741092225 2 3 0
1888 353 2 0.5564 2.642188298141361 5.834285120058835 -15.637250605079634 2 3 0
4630 1267 2 0.5564 2.011409393403984 1.6758624275862422 -16.1322594797146 3 -1 0
4628 1267 1 -1.1128 1.3997056388857905 2.393549578804288 -15.968012126099136 3 -1 0
934 35 2 0.5564 -1.3405088853294918 -0.42183131524091133 -10.397379849985859 2 0 0
4629 1267 2 0.5564 0.807361272065848 2.055097532732125 -15.296587798230814 3 -1 0
3824 999 1 -1.1128 -0.9504768378481134 6.669539043277702 -16.20146228731831 1 0 0
1886 353 1 -1.1128 1.769074429912277 5.48203921417214 -15.809958200638253 2 3 0
3322 831 2 0.5564 0.6988441967849175 7.147429849465134 -4.0242131223892225e-05 -3 1 0
1249 140 2 0.5564 4.008912262674354 0.38261530238493563 -4.007404777390772 3 3 0
4558 1243 2 0.5564 6.9145213157792025 4.160906108481849 -0.6401244258281378 -2 -2 0
3340 837 2 0.5564 6.92449188835849 4.919491721726537 -15.469827613164702 -5 0 0
3338 837 1 -1.1128 6.975045500477932 5.651613797385832 -16.0843796037707 -5 0 0
3339 837 2 0.5564 6.0979153901848955 6.034714712157531 -16.073934280426716 -5 0 0
1692 288 2 0.5564 9.165392313059343 0.4858553271771367 -15.852206587859175 1 3 0
13 1 3 0 7.36814 0 -19.086524130372066 0 0 0
16 1 3 0 7.36814 2.836 -19.086524130372066 0 0 0
17 1 3 0 9.82419 0 -19.086524130372066 0 0 0
18 1 3 0 8.59617 0.709 -19.086524130372066 0 0 0
19 1 3 0 8.59617 2.127 -19.086524130372066 0 0 0
20 1 3 0 9.82419 2.836 -19.086524130372066 0 0 0
21 1 3 0 12.2802 0 -19.086524130372066 0 0 0
22 1 3 0 11.0522 0.709 -19.086524130372066 0 0 0
23 1 3 0 11.0522 2.127 -19.086524130372066 0 0 0
24 1 3 0 12.2802 2.836 -19.086524130372066 0 0 0
26 1 3 0 13.5083 0.709 -19.086524130372066 0 0 0
27 1 3 0 13.5083 2.127 -19.086524130372066 0 0 0
65 1 3 0 7.36814 4.254 -19.086524130372066 0 0 0
68 1 3 0 7.36814 7.09 -19.086524130372066 0 0 0
69 1 3 0 9.82419 4.254 -19.086524130372066 0 0 0
70 1 3 0 8.59617 4.963 -19.086524130372066 0 0 0
71 1 3 0 8.59617 6.381 -19.086524130372066 0 0 0
72 1 3 0 9.82419 7.09 -19.086524130372066 0 0 0
73 1 3 0 12.2802 4.254 -19.086524130372066 0 0 0
74 1 3 0 11.0522 4.963 -19.086524130372066 0 0 0
75 1 3 0 11.0522 6.381 -19.086524130372066 0 0 0
76 1 3 0 12.2802 7.09 -19.086524130372066 0 0 0
78 1 3 0 13.5083 4.963 -19.086524130372066 0 0 0
79 1 3 0 13.5083 6.381 -19.086524130372066 0 0 0
1536 236 2 0.5564 6.317310893456623 -0.6958546325599448 -13.455559329709585 -1 0 0
1061 78 1 -1.1128 11.261568310710736 4.156908445899174 -14.86739867186656 2 0 0
1063 78 2 0.5564 11.24469714652013 5.111973170387236 -14.805759408838565 2 0 0
1062 78 2 0.5564 12.175135537552666 3.9448836100142732 -15.058913623681894 2 0 0
3677 950 1 -1.1128 9.158712046404109 2.768914226078779 -15.839892196955322 -1 1 0
3678 950 2 0.5564 9.952932061179594 3.1407560593673747 -15.456250875929282 -1 1 0
3679 950 2 0.5564 8.618149422029767 3.5287230812890207 -16.05602805910865 -1 1 0
1616 263 1 -1.1128 11.526098688218687 7.118032398518652 -15.81833809100886 -3 1 0
5014 1395 2 0.5564 13.962939930235505 6.494511346966438 -15.553660554074666 1 2 0
3674 949 1 -1.1128 3.979685493557884 3.5015080869562887 -13.20639042968667 -4 -2 0
1206 126 2 0.5564 4.286823563923781 6.530784896828439 -14.839096998480803 1 4 0
3966 1046 2 0.5564 2.3013694641682223 4.240093825783091 -13.03235152870239 -1 0 0
3326 833 1 -1.1128 0.937462632448779 6.703551658323239 -11.139965080863792 -2 0 0
3860 1011 1 -1.1128 6.768889018332839 3.4864639456595774 -14.389715547086704 -3 -4 0
3861 1011 2 0.5564 7.036533739129932 3.6846911196849446 -13.492323523913322 -3 -4 0
3965 1046 1 -1.1128 1.4994974981211622 4.762802415177972 -13.029060686383287 -1 0 0
3967 1046 2 0.5564 1.361326184724105 4.996085457057575 -13.947059908472069 -1 0 0
4172 1115 1 -1.1128 4.484498521996175 6.337028201283396 -13.036945344512933 -3 -1 0
4173 1115 2 0.5564 4.334281763263418 6.817310749816017 -12.222699334840444 -3 -1 0
4174 1115 2 0.5564 3.928661979779785 5.561170907696925 -12.963970820027471 -3 -1 0
4601 1258 1 -1.1128 4.644122946012897 2.7527212578077447 -10.685757508127521 1 -7 0
4603 1258 2 0.5564 3.9589536358635407 2.1398294891659426 -10.419030814748776 1 -7 0
1282 151 2 0.5564 1.7831289970175233 1.3856902576539663 -9.348569565451706 2 4 0
3270 814 2 0.5564 11.736664002880062 -0.5614623317718445 -12.844201326943068 -1 -2 0
1280 151 1 -1.1128 2.4678735852556435 0.8670041429774633 -9.77085647174249 2 4 0
954 42 2 0.5564 2.681431374304978 7.318311687677458 -10.476311668982936 -5 1 0
3675 949 2 0.5564 4.2242927183038494 3.286072018544155 -12.306397509342853 -4 -2 0
3676 949 2 0.5564 4.712302954879812 3.18692345632781 -13.736051895061705 -4 -2 0
3433 868 2 0.5564 3.165163764614186 1.2497153016841933 -0.07516539149628698 2 4 0
1627 266 2 0.5564 8.803546679437153 7.76149512973117 -7.122912546023434 2 -1 0
2176 449 2 0.5564 -1.5941981609786686 4.55058895313805 -11.895614078812093 0 2 0
4089 1087 2 0.5564 6.362009985723089 2.849928396419353 -11.52991064704354 1 5 0
4491 1221 2 0.5564 1.7007298591555724 -0.6322260626970649 -16.07992884272638 5 -1 0
953 42 1 -1.1128 3.6079908027993217 7.284623397107448 -10.238430344671107 -5 1 0
4088 1087 1 -1.1128 7.147093700811076 3.3637448890464006 -11.719305641903073 1 5 0
2967 713 2 0.5564 12.50264399879051 7.3007449417635675 -6.963369625206875 -4 0 0
4602 1258 2 0.5564 4.52532083805151 3.5098886064218586 -10.112331984317537 1 -7 0
2809 660 2 0.5564 0.6376702248224768 6.406311473448222 -9.08185731137082 -2 0 0
1281 151 2 0.5564 2.4480904766401848 0.02608336033883109 -9.314026298107306 2 4 0
4943 1372 1 -1.1128 -1.4437782457864332 3.237630767814863 -10.25371947130996 2 1 0
3968 1047 1 -1.1128 0.039537207884605546 -0.1693167728372596 -12.537576184239487 1 0 0
1699 290 2 0.5564 10.266409873587172 7.067986737586806 -8.718447082200507 3 0 0
4945 1372 2 0.5564 -0.5386589795246406 3.067311096362393 -9.992981661294548 2 1 0
3970 1047 2 0.5564 -0.4777896394561319 0.19562750968651688 -13.255505304559234 1 0 0
3969 1047 2 0.5564 0.7209858537192493 0.4833930033150066 -12.3768543764205 1 0 0
2691 621 2 0.5564 6.297324658865994 1.1453106334983647 -6.383695918048672 -1 -1 0
1573 248 2 0.5564 9.78442459475764 6.061744228018391 -6.514151594579947 2 1 0
3812 995 1 -1.1128 4.74438968666829 4.964370375954843 -8.657137840270062 -3 -2 0
3813 995 2 0.5564 5.302613869437503 5.066336760007991 -7.886279170530209 -3 -2 0
4344 1172 2 0.5564 -1.5306782493373676 7.06219186953826 -12.628994956981606 1 0 0
2692 621 2 0.5564 7.792015348610315 1.3383459654037477 -6.526997059052142 -1 -1 0
2070 414 2 0.5564 12.276600200412567 0.1327245061586048 -3.359136393303726 1 -3 0
4065 1079 2 0.5564 1.1653143715398542 -0.607639565527723 -0.43919842254937097 0 -3 0
4597 1256 2 0.5564 7.324673669240694 6.234004731498875 -7.85637681303899 1 -2 0
3596 923 1 -1.1128 14.039891577251923 -0.08285420154703822 -2.9006404050722288 0 1 0
1799 324 1 -1.1128 -1.2474434963036372 1.6009257063244264 -14.924144273569643 -2 1 0
2007 393 2 0.5564 3.049087582855711 1.7932767809238999 -13.538590365428632 5 1 0
1617 263 2 0.5564 11.396654306072854 6.988913187070627 -16.757915454775794 -3 1 0
3814 995 2 0.5564 4.242572052050257 5.778389649830211 -8.699416518326775 -3 -2 0
3328 833 2 0.5564 1.1908703206189575 5.9472711572389825 -11.669170176111384 -2 0 0
3327 833 2 0.5564 0.25263090141158634 7.135239291140181 -11.650734107399545 -2 0 0
2006 393 1 -1.1128 2.645667920811514 1.0484570273293556 -13.092798671546875 5 1 0
1800 324 2 0.5564 -1.4771140210873905 2.503151042801986 -15.14658802993128 -2 1 0
2575 582 2 0.5564 0.5295155718754705 7.611652313731407 -4.282235236334491 2 2 0
1342 171 2 0.5564 11.576543173993603 6.045305784141994 -0.378966028687579 4 -5 0
3862 1011 2 0.5564 7.5028080062999685 2.992717473164956 -14.7555188120398 -3 -4 0
4579 1250 2 0.5564 12.788897470955119 -0.41494524071539873 -6.834779250640201 -1 1 0
2917 696 2 0.5564 8.727889806090271 6.980218926836545 -15.75270564854008 -1 0 0
4306 1159 2 0.5564 13.99251133303581 4.998932701583204 -0.2965238150745942 0 -1 0
3724 965 2 0.5564 5.573155412668894 2.5705283992941665 -1.6832928827564346 3 0 0
4064 1079 1 -1.1128 0.23458537712824654 -0.43476294451709757 -0.297456527357813 0 -3 0
4090 1087 2 0.5564 7.754979396476286 3.142004118022775 -11.013941139141227 1 5 0
3055 742 2 0.5564 9.572763712514389 0.22579120680904324 -11.860421707040398 2 1 0
2053 408 2 0.5564 9.990290234469148 -0.09183587940821547 -9.910851826106738 2 -1 0
4469 1214 1 -1.1128 7.800428223441684 0.2570129492224448 -1.369800239183453 0 3 0
2261 478 1 -1.1128 11.87571533256648 3.9695136315625112 -9.250763654174454 1 -1 0
1072 81 2 0.5564 11.2724534795528 2.9074732949528523 -7.5324254752423565 -1 -1 0
1492 221 2 0.5564 -1.5930524744147152 7.289146910070077 -4.073136153179009 1 -2 0
3269 814 1 -1.1128 12.650400443393895 -0.38451824728414213 -13.067841720386868 -1 -2 0
1698 290 2 0.5564 9.318553435293088 6.592539849814006 -9.798916474736826 3 0 0
1697 290 1 -1.1128 10.23726074919845 6.80882116526488 -9.639434492154031 3 0 0
868 13 2 0.5564 12.742303290439631 3.986361508769502 -12.162747708264094 0 -3 0
4795 1322 2 0.5564 10.028422695214774 1.4655920281121881 -6.495563380421776 -1 -2 0
866 13 1 -1.1128 11.805996918349818 3.793567795470118 -12.211734626842018 0 -3 0
3504 892 2 0.5564 9.851099903637289 2.3239155248268797 -10.194920895053167 2 -1 0
2964 712 2 0.5564 6.418059535778492 6.738731764319587 -13.331939791502213 3 -1 0
1571 248 1 -1.1128 9.738370598428736 5.108870928724905 -6.435739047313358 2 1 0
2447 540 1 -1.1128 9.034002146776094 3.685171745318126 -9.469999283294946 1 -2 0
2262 478 2 0.5564 11.811059525775955 4.896242482529587 -9.02005422139145 1 -1 0
1071 81 2 0.5564 12.23228287492985 1.8519468438413935 -7.02597742590774 -1 -1 0
1275 149 2 0.5564 -1.203836285010197 5.59889324010974 -1.2060424494680402 3 2 0
2449 540 2 0.5564 9.782812403676399 4.171971031404496 -9.125698763959557 1 -2 0
2448 540 2 0.5564 8.30399315407643 3.935790622388006 -8.903863080738683 1 -2 0
3505 892 2 0.5564 11.016083016527894 2.159224267664936 -11.147595423945376 2 -1 0
3503 892 1 -1.1128 10.455423916692446 1.6697137412992118 -10.545703257554253 2 -1 0
867 13 2 0.5564 11.555281460468633 4.045500478918602 -13.100501997106582 0 -3 0
1070 81 1 -1.1128 11.599256795632137 2.5050707680114783 -6.727748526311423 -1 -1 0
2263 478 2 0.5564 11.793619445140257 3.953290791077592 -10.204299192093975 1 -1 0
2966 713 1 -1.1128 12.758183896918997 6.706141774232326 -7.668623992576309 -4 0 0
2812 661 2 0.5564 -0.9950198461392248 0.6313128371681976 -6.284882853755577 0 3 0
1535 236 1 -1.1128 6.263233635665403 -0.2526195791332641 -12.608889183918668 -1 0 0
1771 314 2 0.5564 13.452825978109674 2.470732124208229 -16.314460699001756 3 1 0
3723 965 2 0.5564 6.496690976308552 2.0978367316718782 -0.5807738961917746 3 0 0
4367 1180 1 -1.1128 10.007060648118728 6.617140795542602 -12.561864081268038 2 1 0
4784 1319 1 -1.1128 8.118353580644598 6.700413262023476 -2.7852909605974214 -3 -2 0
4578 1250 2 0.5564 13.217578973878318 -0.012510651049222235 -8.229836697728453 -1 1 0
4577 1250 1 -1.1128 13.114704665121646 0.32889266816049756 -7.341524308148648 -1 1 0
2008 393 2 0.5564 2.1153741102539723 0.6237113725244835 -13.767049093455837 5 1 0
4794 1322 2 0.5564 9.703815304105436 0.48969574811666083 -7.60648784694173 -1 -2 0
4793 1322 1 -1.1128 9.459329022895957 0.726989479014986 -6.7119750272314915 -1 -2 0
4808 1327 1 -1.1128 13.090578288332155 -0.1553081136198543 -10.263813162345885 -6 2 0
4810 1327 2 0.5564 13.126477937502994 -0.01656555127748417 -11.210227159307049 -6 2 0
4369 1180 2 0.5564 10.124631112740355 6.746487134521496 -11.620758884507163 2 1 0
4368 1180 2 0.5564 9.065182921305194 6.485346262272459 -12.670174875973489 2 1 0
2965 712 2 0.5564 7.620276879854833 6.716662480943017 -14.25176712005419 3 -1 0
4717 1296 2 0.5564 7.5794786087633 2.656906237845586 -3.838227108568042 2 3 0
1325 166 1 -1.1128 -1.3693717262952494 0.5087356369412221 -2.2317373243241807 3 3 0
4470 1214 2 0.5564 7.821558858320756 0.03996813448202827 -2.301829027910583 0 3 0
4557 1243 2 0.5564 7.535635475312676 5.313162583195504 -1.4006634309655617 -2 -2 0
3310 827 2 0.5564 4.017128565159249 4.837304939518992 -4.482979364665864 -2 -1 0
932 35 1 -1.1128 -1.5360927550296788 -0.3187243018656486 -9.466064168631778 2 0 0
1327 166 2 0.5564 -0.8418512241315814 1.0640487131339187 -2.8058309847683747 3 3 0
4596 1256 2 0.5564 6.996185449679608 7.380206211924699 -8.789232016665244 1 -2 0
2808 660 2 0.5564 1.0388835863222088 5.402602809906917 -8.021907458802291 -2 0 0
1651 274 2 0.5564 3.3251762807029155 4.48497652639687 -7.731197386968 2 1 0
1649 274 1 -1.1128 2.5870025696295644 4.469189390172946 -7.122031332957638 2 1 0
2807 660 1 -1.1128 0.6186645479109838 6.254909209387617 -8.136897506369268 -2 0 0
1045 72 2 0.5564 6.125774263064484 -0.5747632452086014 -4.930811448429438 -2 -1 0
3825 999 2 0.5564 -0.6364015708892528 7.5732840644274555 -16.230360577286177 1 0 0
2690 621 1 -1.1128 6.961837310243952 1.814370086587387 -6.5480586702622485 -1 -1 0
1168 113 2 0.5564 -1.513243569398158 4.866731767009873 -15.593154395189929 6 2 0
4783 1318 2 0.5564 4.442491527696307 5.897867775724143 -2.1700666906414345 5 4 0
2968 713 2 0.5564 12.828646378113474 7.26663212554055 -8.441360132811335 -4 0 0
4782 1318 2 0.5564 3.6496272970314667 6.91501354201327 -2.962958813833581 5 4 0
1274 149 1 -1.1128 -0.26255097370238334 5.754953187114574 -1.2826083915284126 3 2 0
3271 814 2 0.5564 12.687162792329062 -0.4791191593150986 -14.01964659394453 -1 -2 0
3722 965 1 -1.1128 5.769100109607631 2.6950029127356587 -0.7546654696867663 3 0 0
2573 582 1 -1.1128 0.07696611692304459 7.575605700645894 -3.4395387087225395 2 2 0
2905 692 2 0.5564 3.1790733674801452 1.6717114736030898 -2.3178418214334453 3 -2 0
2903 692 1 -1.1128 2.905204229210242 2.0887899709722637 -1.5009734430377193 3 -2 0
2810 661 1 -1.1128 -0.9768554564268324 1.5880574248222705 -6.308177446690108 0 3 0
4768 1313 2 0.5564 1.2730184787441272 4.767095343008965 -2.0409923770621834 0 1 0
4767 1313 2 0.5564 2.5485425809072133 4.908298712877599 -2.8441109124764252 0 1 0
3104 759 1 -1.1128 0.9195548611333184 2.468309390352637 -8.208057820801539 0 -2 0
3105 759 2 0.5564 1.5456764133383847 3.037463263249293 -7.760541761094909 0 -2 0
1650 274 2 0.5564 2.985369400130951 4.583719857155331 -6.259233313687634 2 1 0
3106 759 2 0.5564 0.44310142651263035 2.0330053082849653 -7.501137179755689 0 -2 0
4766 1313 1 -1.1128 1.9124275608640129 4.260222630059797 -2.541465046626563 0 1 0
4840 1337 2 0.5564 0.5990607146580388 3.063140434289319 -3.8593086983864238 -2 -3 0
2904 692 2 0.5564 2.502771697965323 2.912787364129667 -1.7753994376460658 3 -2 0
3406 859 2 0.5564 11.429425715025381 3.612799086324556 -3.7129326066477635 -1 0 0
1744 305 2 0.5564 12.712541217094568 7.523813054206982 -4.751704426718763 2 -1 0
4210 1127 2 0.5564 2.975233547269951 7.323913973714968 -6.655846140115511 3 1 0
4781 1318 1 -1.1128 3.9009347872728726 5.991435838560373 -2.953772785924698 5 4 0
1248 140 2 0.5564 2.5538059618796214 0.1567758010467557 -4.358916531493834 3 3 0
2144 439 1 -1.1128 6.62911903909858 6.993846636682336 -5.156449170661996 -3 0 0
1245 139 2 0.5564 -1.2644203672382779 6.050096655703056 -7.377251638957937 3 3 0
1691 288 1 -1.1128 9.327935899709862 -0.4561523875041986 -15.901542950987567 1 3 0
4351 1174 2 0.5564 5.681460600550895 1.729469418314292 -3.7917298305254206 -2 1 0
3308 827 1 -1.1128 4.538010152348801 4.418158069707748 -5.167985542970522 -2 -1 0
4209 1127 2 0.5564 4.381407196187713 7.413597330282424 -6.102191825367745 3 1 0
1883 352 1 -1.1128 10.203523265107295 2.6728279804933854 -1.1981566445649747 4 5 0
4208 1127 1 -1.1128 3.8855362988766378 7.113495124654019 -6.863955384232927 3 1 0
4350 1174 2 0.5564 5.349030006701235 3.1907526048052923 -4.006304306208893 -2 1 0
3430 867 2 0.5564 6.534749510874597 7.492654793643355 -10.651148461305503 2 5 0
3309 827 2 0.5564 5.24098162105791 5.041708028186319 -5.350331065732312 -2 -1 0
1043 72 1 -1.1128 5.757281524141659 -0.21864726825964345 -4.122339022085717 -2 -1 0
4349 1174 1 -1.1128 5.8164026502738295 2.5995203266739657 -3.4161827844674337 -2 1 0
2763 645 2 0.5564 0.8634154716213751 7.1845401181532145 -6.672877843076923 0 -1 0
4556 1243 1 -1.1128 7.713752160459805 4.684058339271128 -0.7015678177010036 -2 -2 0
4839 1337 2 0.5564 -0.3754363914874418 2.5587072575647145 -4.902286966077501 -2 -3 0
1326 166 2 0.5564 -0.7710265932219672 0.2520699901982891 -1.5300678322496335 3 3 0
1207 126 2 0.5564 4.322762939013007 7.5526055031417965 -15.955559650807 1 4 0
4716 1296 2 0.5564 8.540230992111713 1.6815325357824467 -4.484369333376557 2 3 0
848 7 1 -1.1128 12.612673963526888 4.146819217008171 -1.3093453851329506 -5 0 0
1885 352 2 0.5564 9.416841420112855 2.9681382240690968 -1.6565847641680436 4 5 0
850 7 2 0.5564 13.110674865786741 3.5494066313845103 -1.867313232543381 -5 0 0
3053 742 1 -1.1128 9.94357704624679 -0.3530737399354861 -12.526489462368735 2 1 0
4715 1296 1 -1.1128 8.485245538478681 2.349591280353942 -3.801063647637984 2 3 0
2069 414 1 -1.1128 11.399815524630528 0.23002394307027071 -3.730639697118186 1 -3 0
4327 1166 2 0.5564 7.009582223285508 3.614606764248567 -6.932145559775719 3 4 0
2145 439 2 0.5564 7.021314988315 7.1936549462002395 -6.006445703673826 -3 0 0
4838 1337 1 -1.1128 -0.3155027763025617 2.8077123151085304 -3.979985189890759 -2 -3 0
4785 1319 2 0.5564 8.749811159919954 7.419614456169131 -2.8010401751887866 -3 -2 0
1884 352 2 0.5564 10.16340221472242 1.717547977474034 -1.2435858155377562 4 5 0
1572 248 2 0.5564 9.775561944258724 4.943523896942638 -5.493660055162956 2 1 0
4325 1166 1 -1.1128 7.277704097323446 4.499136104789383 -7.181045500529194 3 4 0
3404 859 1 -1.1128 12.049534138222981 3.0013007736213932 -4.11013298079368 -1 0 0
4326 1166 2 0.5564 8.183537099382216 4.5690571197212835 -6.879697569381875 3 4 0
3359 844 1 -1.1128 10.012065489050078 4.623165599925322 -3.6239708496148615 1 2 0
2762 645 1 -1.1128 1.3163217510193042 7.492272901065766 -5.887760158036773 0 -1 0
1373 182 1 -1.1128 6.729076912852806 5.749248438961788 -10.395682185133158 0 0 0
1095 89 2 0.5564 9.26691622858334 -0.2596933258677024 -0.7485072756886264 -2 3 0
2836 669 2 0.5564 11.773075568838026 5.647690338097227 -3.3148762953704076 -1 -1 0
1769 314 1 -1.1128 13.655888237692537 3.3260449840472828 -15.935728964141715 3 1 0
849 7 2 0.5564 11.759606204090236 3.724823502074653 -1.2072071614721875 -5 0 0
4471 1214 2 0.5564 6.893893592182353 0.09799537044443735 -1.106853826862567 0 3 0
2963 712 1 -1.1128 7.3433507962349225 6.495565569847404 -13.362576099336664 3 -1 0
3405 859 2 0.5564 11.783273960982703 2.9519853491714683 -5.028232229401249 -1 0 0
2811 661 2 0.5564 -1.7770609886467377 1.8320248173334917 -6.77334779233904 0 3 0
2071 414 2 0.5564 11.35009384692212 1.1498719152506942 -3.990716656479289 1 -3 0
3361 844 2 0.5564 9.430478687932101 5.333463898605463 -3.3529248214691507 1 2 0
3360 844 2 0.5564 9.437663181184154 3.86233378643906 -3.7101677391386154 1 2 0
4786 1319 2 0.5564 7.584593183222068 6.832495333537614 -3.5688009074318963 -3 -2 0
1094 89 1 -1.1128 10.210546956859385 -0.4172487771834261 -0.7796575771876264 -2 3 0
1247 140 1 -1.1128 3.120114015395613 0.6099276722341193 -3.734269929280513 3 3 0
1276 149 2 0.5564 -0.17534813614070355 6.32676337770636 -2.045277753131698 3 2 0
1693 288 2 0.5564 9.87594237247047 -0.6453419431888501 -15.139880995084193 1 3 0
2835 669 2 0.5564 13.182791544477048 6.113599919577947 -3.019026720033046 -1 -1 0
4299 1157 2 0.5564 13.620134909508115 3.0729424992974277 -5.184222700251766 -3 -1 0
2051 408 1 -1.1128 9.331804309049382 -0.48965452136102494 -9.341315792253791 2 -1 0
2834 669 1 -1.1128 12.334618585791594 6.422540430329873 -3.337449153677235 -1 -1 0
4595 1256 1 -1.1128 7.284200134348171 7.189506870559918 -7.896529583707001 1 -2 0
1375 182 2 0.5564 6.8434658556646015 5.146695176505995 -11.130583760968566 0 0 0
4490 1221 1 -1.1128 2.4734589489368064 -0.23144027155830085 -15.681816399528916 5 -1 0
1374 182 2 0.5564 6.066102613341611 5.332885805787476 -9.8449175646688 0 0 0
2146 439 2 0.5564 5.978095382349798 7.683057686888135 -5.0245721901884535 -3 0 0
2915 696 1 -1.1128 8.977297112958375 7.77643068198106 -15.283582814027985 -1 0 0
1537 236 2 0.5564 5.421916212354722 -0.5298510259955478 -12.246176209163862 -1 0 0
933 35 2 0.5564 -0.7574177526049711 -0.6506257550844339 -9.01913616721581 2 0 0
1096 89 2 0.5564 10.390298633921335 -0.617045545907132 -1.6983542526293218 -2 3 0
4423 1198 2 0.5564 3.5427628787293703 -0.5775103468627876 -12.32002448866259 3 -1 0
2572 581 2 0.5564 3.0257874452237785 -0.6022861801736568 -2.383832319266859 2 -2 0
4977 1383 2 0.5564 1.49358466843444 4.48059947804735 4.775689385340709 2 -2 0
3431 868 1 -1.1128 3.3571278680377454 0.6424070550630692 0.6393723389338609 2 4 0
3822 998 2 0.5564 0.34538163790800414 0.9062865200727166 3.4847840187675345 3 -2 0
3821 998 1 -1.1128 0.11499723346749138 0.6571317256893613 4.37981356401891 3 -2 0
2949 707 2 0.5564 8.384210965648952 -0.16735937031345635 9.669867204298221 -2 2 0
4976 1383 1 -1.1128 0.7987373150489944 4.830332075553284 5.333458662247663 2 -2 0
1912 361 2 0.5564 -0.07242652176821573 5.696485893967434 3.915736053973241 0 0 0
1911 361 2 0.5564 -1.085368019198598 6.1842639057522995 2.9018697769872093 0 0 0
2827 666 2 0.5564 4.20564562208522 5.474039336880803 0.7435216486366727 0 3 0
2752 641 2 0.5564 1.2780761786361419 6.102591712884625 7.003241718180989 -1 0 0
1049 74 1 -1.1128 6.01023681430248 6.11732288796367 6.172194695276884 -1 0 0
1910 361 1 -1.1128 -0.20381824193028214 5.818631265387898 2.9754970280499937 0 0 0
3155 776 1 -1.1128 5.013682028236491 3.6645750772482 6.240077225870099 -1 -2 0
3157 776 2 0.5564 4.279779645039974 3.740198242723901 6.8499137918974595 -1 -2 0
4978 1383 2 0.5564 0.3136973598921071 4.058374985961435 5.625093908758259 2 -2 0
1050 74 2 0.5564 6.30280908185589 6.352594782381325 5.291691824994121 -1 0 0
1051 74 2 0.5564 6.753016285958967 6.330812582729687 6.736941774453542 -1 0 0
4674 1282 2 0.5564 -0.45697568766723917 2.08729287142621 9.041671861286261 -1 -2 0
3471 881 2 0.5564 3.8786627486850227 3.9541271650624124 4.655814565086283 2 0 0
3156 776 2 0.5564 5.448676544772915 4.516229525238405 6.281273532663892 -1 -2 0
1319 164 1 -1.1128 8.93491239479716 6.7197037449006025 5.900264674532436 1 3 0
3432 868 2 0.5564 2.531349605142382 0.5654250569940784 1.1172807218275216 2 4 0
3930 1034 2 0.5564 5.306706201858539 -0.6612354946329483 5.518898746895597 1 -4 0
2682 618 2 0.5564 -0.39528823727141355 2.0188627745943606 5.244000383076982 2 -1 0
2750 641 1 -1.1128 1.8040723898604616 6.086811159899484 7.802811504630278 -1 0 0
1101 91 2 0.5564 -0.4104533025854383 6.092060275623639 5.914380734575394 -2 0 0
1321 164 2 0.5564 9.643202130205689 7.110751903648702 5.388754900751627 1 3 0
1340 171 1 -1.1128 11.330596916324675 6.290851974176131 0.512914484839521 4 -5 0
2061 411 2 0.5564 5.525878800246865 3.123047220389449 2.199855263930185 -1 -1 0
437 2 4 0 12.2802 0 22.709149600932808 0 0 0
997 56 2 0.5564 -0.5027285369085149 0.7003148170287777 14.364556103973412 0 3 0
3931 1034 2 0.5564 4.425393889259502 -0.1152788171217618 4.415667335997749 1 -4 0
4182 1118 2 0.5564 3.647663269300097 2.162042316066428 3.5977072572532123 -1 1 0
2312 495 1 -1.1128 0.7287873817291376 1.1775308657068069 1.6991983105911106 -3 -2 0
2681 618 1 -1.1128 -0.605708036342676 2.6090305654149772 5.9676428675177124 2 -1 0
4181 1118 1 -1.1128 3.984348239320744 1.3311658045604782 3.2622646666614483 -1 1 0
3666 946 2 0.5564 2.3821847621050787 -0.532577693657435 19.420040933021347 -1 -3 0
438 2 4 0 11.0522 0.709 22.709149600932808 0 0 0
3470 881 1 -1.1128 3.255541128360758 3.915688665768238 3.930227734916164 2 0 0
2433 535 2 0.5564 0.5198705968749688 0.16001117623431316 7.387741737298902 1 1 0
2060 411 1 -1.1128 4.9816601421660485 3.797726751168241 1.793812639134214 -1 -1 0
495 2 4 0 13.5083 6.381 22.709149600932808 0 0 0
2062 411 2 0.5564 4.977161815973863 3.574403928759126 0.8630370142201492 -1 -1 0
2707 626 2 0.5564 0.959962404438185 7.262137893788102 2.9536092695814076 3 -3 0
3855 1009 2 0.5564 3.6032333214137764 7.083166200163976 7.75564697826716 3 -1 0
1789 320 2 0.5564 -1.4650734231452118 6.181039967197511 12.368220207784459 1 0 0
3472 881 2 0.5564 3.802693728592693 3.867334230805845 3.1463127255730665 2 0 0
3854 1009 1 -1.1128 4.253492890022335 7.6363865258162145 7.32281478518535 3 -1 0
3856 1009 2 0.5564 4.717362903625869 7.043676005979853 6.731411253020937 3 -1 0
2314 495 2 0.5564 0.472426880143614 0.6557469777456355 0.9387675055655438 -3 -2 0
2313 495 2 0.5564 0.7131767238480654 2.0819045072059295 1.385994259149231 -3 -2 0
439 2 4 0 11.0522 2.127 22.709149600932808 0 0 0
434 2 4 0 8.59617 0.709 22.709149600932808 0 0 0
2045 406 1 -1.1128 7.034907149238957 6.1300109815651895 8.719294904605016 -2 -2 0
1102 91 2 0.5564 -1.590535125639376 5.931736292860278 6.849045674929927 -2 0 0
2369 514 1 -1.1128 9.569217732562494 4.033625075864059 6.072105455135275 2 3 0
1320 164 2 0.5564 9.087233263812434 5.77666670427003 5.839323885917584 1 3 0
4524 1232 2 0.5564 4.0830833945320295 7.559481187599232 16.30025206930202 0 0 0
2371 514 2 0.5564 9.261265065713426 3.392290350251473 5.431722141645394 2 3 0
4076 1083 1 -1.1128 5.885594636005288 -0.2783123788793078 0.8973006420599857 3 -3 0
2948 707 1 -1.1128 7.989458808864919 -0.6224471088289851 10.413711427400976 -2 2 0
1636 269 2 0.5564 6.769886201806525 1.3741247510810584 1.904224258599239 2 0 0
3080 751 1 -1.1128 9.786264503787226 1.6562168621394657 1.3927782252918082 1 -2 0
1476 216 2 0.5564 10.746173892240213 3.2926571742923896 2.125257127481085 -1 1 0
4723 1298 2 0.5564 6.567657058539118 2.7553170729565317 5.4468448851651186 -2 -1 0
4721 1298 1 -1.1128 7.376565160566067 2.5260614373211108 4.9893058393349605 -2 -1 0
4722 1298 2 0.5564 7.105036266155608 2.3718063925041286 4.084478700701671 -2 -1 0
1635 269 2 0.5564 8.13124600765121 2.0177920329398056 2.0600716243565524 2 0 0
3519 897 2 0.5564 8.417570541465569 5.893894806355238 0.7036094711507922 2 -1 0
3520 897 2 0.5564 9.303366409443 5.504140900286177 1.8678060237094904 2 -1 0
3518 897 1 -1.1128 8.644813049253486 6.144670589720254 1.598990165201686 2 -1 0
2840 671 1 -1.1128 -1.8257866191688712 1.7347135390400186 18.52960042021344 2 -1 0
1475 216 1 -1.1128 10.962432054736187 4.203326982560167 2.325626221175689 -1 1 0
3830 1001 1 -1.1128 13.70982728793922 1.2331751023560327 3.8055472385907674 2 1 0
847 6 2 0.5564 13.002381444535322 0.4127214394810098 2.473505139502242 0 0 0
1477 216 2 0.5564 11.435041577700915 4.160440535604641 3.156912595428576 -1 1 0
3400 857 2 0.5564 -0.44699271277368036 2.7109950457403866 12.175312998259813 -2 1 0
2440 537 2 0.5564 7.194804456614473 -0.012679518248847641 6.895219951864999 -2 -1 0
3832 1001 2 0.5564 13.47642498370784 0.8229338386145872 4.638288812059116 2 1 0
4389 1187 2 0.5564 12.626800630479051 6.97113677249393 1.8277183468067635 0 -3 0
1289 154 1 -1.1128 13.964913632819618 5.230043314540581 7.690475949963797 -1 -2 0
3320 831 1 -1.1128 1.51792100342269 7.342295239204623 0.45534231079206444 -3 1 0
4318 1163 2 0.5564 0.37105368293097807 4.679609784328563 1.600762025937704 1 1 0
1341 171 2 0.5564 10.973859933813202 5.488093161055498 0.8931127147714976 4 -5 0
3082 751 2 0.5564 10.43939613163469 0.9650572086680613 1.2834607913282217 1 -2 0
2598 590 2 0.5564 8.865127533800127 1.260439923640882 7.592009193374589 5 0 0
2599 590 2 0.5564 9.760295046305064 0.04574241644279456 7.71481992135042 5 0 0
4762 1311 2 0.5564 11.493195862577888 4.302109609845092 5.508423827028176 -5 3 0
1634 269 1 -1.1128 7.219569644567781 2.0977280416552806 2.340591661314897 2 0 0
2091 421 2 0.5564 8.849991716005402 5.979052063737244 8.780125106947361 0 2 0
4390 1187 2 0.5564 13.618763558204398 7.13333558840361 2.959797170379859 0 -3 0
3937 1036 2 0.5564 11.523034782116497 7.5252852024762875 5.265159811579245 1 0 0