LAMMPS data file via write_data, version 2 Aug 2023, timestep = 5250000, units = real

4432 atoms
4 atom types
2400 bonds
1 bond types
1200 angles
1 angle types
0 impropers
1 improper types

-1.8420299999999998 30.08661 xlo xhi
-0.709 33.323 ylo yhi
-150 150 zlo zhi

Masses

1 15.9994
2 1.00794
3 12.0107
4 12.0107

Pair Coeffs # lj/cut/tip4p/long

1 0.1852 3.1589
2 0 0
3 0.0859 3.3997
4 0.0859 3.3997

Bond Coeffs # harmonic

1 5000 0.9572

Angle Coeffs # harmonic

1 500 104.52

Atoms # full

1 1 3 0 0 0 -16.168203030381882 0 0 0
2 1 3 0 -1.22802 0.709 -16.168203030381882 0 0 0
3 1 3 0 -1.22802 2.127 -16.168203030381882 0 0 0
4 1 3 0 0 2.836 -16.168203030381882 0 0 0
5 1 3 0 2.45605 0 -16.168203030381882 0 0 0
6 1 3 0 1.22802 0.709 -16.168203030381882 0 0 0
7 1 3 0 1.22802 2.127 -16.168203030381882 0 0 0
8 1 3 0 2.45605 2.836 -16.168203030381882 0 0 0
9 1 3 0 4.9121 0 -16.168203030381882 0 0 0
10 1 3 0 3.68407 0.709 -16.168203030381882 0 0 0
11 1 3 0 3.68407 2.127 -16.168203030381882 0 0 0
12 1 3 0 4.9121 2.836 -16.168203030381882 0 0 0
14 1 3 0 6.14012 0.709 -16.168203030381882 0 0 0
15 1 3 0 6.14012 2.127 -16.168203030381882 0 0 0
53 1 3 0 0 4.254 -16.168203030381882 0 0 0
54 1 3 0 -1.22802 4.963 -16.168203030381882 0 0 0
55 1 3 0 -1.22802 6.381 -16.168203030381882 0 0 0
56 1 3 0 0 7.09 -16.168203030381882 0 0 0
57 1 3 0 2.45605 4.254 -16.168203030381882 0 0 0
58 1 3 0 1.22802 4.963 -16.168203030381882 0 0 0
59 1 3 0 1.22802 6.381 -16.168203030381882 0 0 0
60 1 3 0 2.45605 7.09 -16.168203030381882 0 0 0
61 1 3 0 4.9121 4.254 -16.168203030381882 0 0 0
62 1 3 0 3.68407 4.963 -16.168203030381882 0 0 0
63 1 3 0 3.68407 6.381 -16.168203030381882 0 0 0
64 1 3 0 4.9121 7.09 -16.168203030381882 0 0 0
66 1 3 0 6.14012 4.963 -16.168203030381882 0 0 0
67 1 3 0 6.14012 6.381 -16.168203030381882 0 0 0
13 1 3 0 7.36814 0 -16.168203030381882 0 0 0
16 1 3 0 7.36814 2.836 -16.168203030381882 0 0 0
17 1 3 0 9.82419 0 -16.168203030381882 0 0 0
18 1 3 0 8.59617 0.709 -16.168203030381882 0 0 0
19 1 3 0 8.59617 2.127 -16.168203030381882 0 0 0
20 1 3 0 9.82419 2.836 -16.168203030381882 0 0 0
21 1 3 0 12.2802 0 -16.168203030381882 0 0 0
22 1 3 0 11.0522 0.709 -16.168203030381882 0 0 0
23 1 3 0 11.0522 2.127 -16.168203030381882 0 0 0
24 1 3 0 12.2802 2.836 -16.168203030381882 0 0 0
26 1 3 0 13.5083 0.709 -16.168203030381882 0 0 0
27 1 3 0 13.5083 2.127 -16.168203030381882 0 0 0
65 1 3 0 7.36814 4.254 -16.168203030381882 0 0 0
68 1 3 0 7.36814 7.09 -16.168203030381882 0 0 0
69 1 3 0 9.82419 4.254 -16.168203030381882 0 0 0
70 1 3 0 8.59617 4.963 -16.168203030381882 0 0 0
71 1 3 0 8.59617 6.381 -16.168203030381882 0 0 0
72 1 3 0 9.82419 7.09 -16.168203030381882 0 0 0
73 1 3 0 12.2802 4.254 -16.168203030381882 0 0 0
74 1 3 0 11.0522 4.963 -16.168203030381882 0 0 0
75 1 3 0 11.0522 6.381 -16.168203030381882 0 0 0
76 1 3 0 12.2802 7.09 -16.168203030381882 0 0 0
78 1 3 0 13.5083 4.963 -16.168203030381882 0 0 0
79 1 3 0 13.5083 6.381 -16.168203030381882 0 0 0
3128 767 1 -1.1128 2.4583429233886953 0.1608530650970151 -8.801137140414017 -3 -3 0
1719 297 2 0.5564 2.317007508949082 2.5384412954030093 -12.739130825254815 2 4 0
1718 297 1 -1.1128 2.789898529278113 1.9005261529801052 -12.204648133023063 2 4 0
2184 452 2 0.5564 4.086781642603344 6.370307579395564 -11.089578696344784 1 -2 0
1720 297 2 0.5564 2.5625565435197504 2.1273986673752616 -11.302939381677563 2 4 0
2183 452 1 -1.1128 3.7123906724344122 5.5684477685296665 -10.724766375915484 1 -2 0
2185 452 2 0.5564 3.16377841920041 5.218697906303414 -11.426860629266745 1 -2 0
1109 94 1 -1.1128 0.25951751125622124 7.209726747238465 -2.932573621853748 0 1 0
3717 963 2 0.5564 12.15396753561013 3.743134911281342 -12.84462307303197 8 0 0
3689 954 1 -1.1128 1.0354456243652328 0.60657749832379 -0.1971134760903779 -3 3 0
1353 175 2 0.5564 1.4972982997586526 4.083069940260589 -11.81879370460295 -1 -1 0
2006 393 1 -1.1128 -1.5511837631110792 2.5703101428245265 -10.544752582132224 -1 4 0
3218 797 1 -1.1128 7.304783205830308 1.8821454351663403 -9.278344382726564 0 1 0
3220 797 2 0.5564 6.590946236412775 2.493890289973463 -9.45844791937995 0 1 0
1352 175 1 -1.1128 1.7516615879094315 4.67733970793131 -12.524751726830013 -1 -1 0
1354 175 2 0.5564 1.1212172205784128 5.3957080547713945 -12.472582572865813 -1 -1 0
3219 797 2 0.5564 6.89311290065498 1.018404236941115 -9.305042403276312 0 1 0
2932 701 2 0.5564 4.542920373035521 1.372257686951881 -12.773527504263535 -4 1 0
1694 289 1 -1.1128 12.634783371707963 -0.08708632191122129 -1.7675554603978234 0 -2 0
1264 145 2 0.5564 5.407042937055716 6.114265323738124 -12.862701692454673 4 0 0
1262 145 1 -1.1128 5.175660310705879 7.029773981104609 -12.706047589704317 4 0 0
1757 310 1 -1.1128 5.434255409098377 3.667913678966734 -9.55196353336434 0 3 0
4254 1142 2 0.5564 0.4694487476331318 2.8188927627157208 -10.357106288037304 0 1 0
2456 543 1 -1.1128 7.924778762079284 7.651528860378113 -13.213790190117416 -2 1 0
1263 145 2 0.5564 6.015192003464257 7.4890339184143375 -12.683643509819442 4 0 0
4255 1142 2 0.5564 1.3433796190390659 2.9881293935395608 -9.132565751983206 0 1 0
1758 310 2 0.5564 6.047731306850983 4.394441185565599 -9.442229039386355 0 3 0
1759 310 2 0.5564 4.645648114976359 4.072263814472326 -9.91367538247327 0 3 0
4253 1142 1 -1.1128 1.3786616720042268 2.9506129094895837 -10.088379874691958 0 1 0
3592 921 2 0.5564 12.664758660410985 7.095974741511786 -3.118209473793964 -2 3 0
1716 296 2 0.5564 11.850690005769334 2.84985512632699 -0.5108232760087418 0 2 0
1717 296 2 0.5564 11.632954360733592 1.3715735165440914 -0.754072524561263 0 2 0
3965 1046 1 -1.1128 -1.8294051267034568 -0.06924204010951515 -10.087581344636254 -1 -1 0
911 28 1 -1.1128 1.407332439792823 2.5795413842834596 -7.358810430314256 -1 -2 0
959 44 1 -1.1128 11.208748599621387 3.28861051423395 -3.1235354696819413 0 2 0
2930 701 1 -1.1128 5.4886325404702445 1.505058074900308 -12.838557396902113 -4 1 0
2931 701 2 0.5564 5.584977608793751 2.4209771221995844 -13.099411871380601 -4 1 0
1180 117 2 0.5564 -0.4584483080156238 6.03106420679073 -10.67352064470032 0 -2 0
1121 98 1 -1.1128 5.899926337891517 4.103806984752528 -12.503142652962406 -1 2 0
1123 98 2 0.5564 5.861137414655081 3.8595462635613 -11.578445148145022 -1 2 0
3576 916 2 0.5564 3.8525635715080155 2.5128393131143985 -0.09651658621960583 3 1 0
3819 997 2 0.5564 1.1297192218026721 0.21116958290487606 -5.685585732100108 0 -1 0
4225 1132 2 0.5564 13.24078330063018 -0.23633142866525966 -4.58588977148722 3 2 0
912 28 2 0.5564 2.2571906358027074 3.019902754246727 -7.351073083849645 -1 -2 0
1290 154 2 0.5564 12.321844826052502 4.469527705976502 -5.9559389646370935 0 -2 0
960 44 2 0.5564 10.972785098633375 2.4226648864215465 -3.4562397510666694 0 2 0
1335 169 2 0.5564 -1.2721226413567344 0.15160224169264236 -12.11703275355055 -3 -2 0
2038 403 2 0.5564 8.598451405127694 2.8073983967513843 -1.0900510975971172 2 0 0
2889 687 2 0.5564 -0.21486477273344984 4.9452859567567415 -1.2780149676760588 3 -1 0
1178 117 1 -1.1128 0.09051037718720735 6.5906281599097225 -11.222851735739606 0 -2 0
2442 538 2 0.5564 1.974352991214841 0.2937557361809535 -12.76128926601277 0 0 0
3413 862 1 -1.1128 10.499327846384668 0.7294733241635384 -3.6037672891185744 2 -1 0
1711 294 2 0.5564 4.80051206372443 1.4590398866652146 -4.164838409804836 4 -4 0
1715 296 1 -1.1128 11.33657296130826 2.1007986448738993 -0.20944276739978035 0 2 0
3130 767 2 0.5564 2.195138285494693 1.0567415922092989 -9.01170969376108 -3 -3 0
2005 392 2 0.5564 7.120143824369773 3.9090462663935623 -4.969379442779825 2 -1 0
3503 892 1 -1.1128 13.875608370940144 -0.5334011981767965 -12.935266156515464 2 -1 0
3164 779 1 -1.1128 8.038714227242437 -0.3196158570130603 -3.464560873346916 2 5 0
1941 371 2 0.5564 12.710359725942846 4.2007263588208845 -2.0387364206110004 -1 4 0
3894 1022 2 0.5564 12.550020312432624 5.747007920201362 -11.60508833648537 7 1 0
2211 461 2 0.5564 11.70557216585556 2.553238470724065 -10.04443392595826 1 2 0
1329 167 2 0.5564 10.89297819923706 5.763393907952166 -9.463885491669858 5 0 0
1328 167 1 -1.1128 11.521705213076999 6.1404757604857565 -10.079307725412745 5 0 0
2991 721 2 0.5564 9.140955626475277 1.9666966528549967 -9.98245577685727 0 -1 0
3196 789 2 0.5564 8.222717626101707 6.198486719186624 -10.031025050772964 -1 -1 0
1806 326 2 0.5564 9.49769075944392 -0.3208397525509144 -13.030012629566041 -1 -2 0
1179 117 2 0.5564 0.6587308056579507 7.050421029537438 -10.604831960793021 0 -2 0
3629 934 1 -1.1128 8.622799746370326 4.2602211643820596 -12.81167268443329 1 -2 0
3631 934 2 0.5564 8.716732737859967 4.821145617059048 -13.581589996953369 1 -2 0
3630 934 2 0.5564 8.905140355415824 3.3952881853608075 -13.10901028636587 1 -2 0
3181 784 2 0.5564 9.270392244155008 3.814137748071156 -7.572340080661818 5 0 0
3180 784 2 0.5564 9.08209400743041 4.734480477686317 -8.759526210892796 5 0 0
1122 98 2 0.5564 6.826252745236043 4.02911083108509 -12.732436905687353 -1 2 0
3343 838 2 0.5564 10.733376815578668 1.6131437612002306 -13.35791621288946 1 1 0
3718 963 2 0.5564 12.652102129321268 2.511871581208872 -12.118159794966276 8 0 0
3341 838 1 -1.1128 9.855631769552996 1.3270594100066575 -13.10502374633022 1 1 0
3342 838 2 0.5564 9.764361435759955 1.6087740482513038 -12.194779334295882 1 1 0
1330 167 2 0.5564 11.376909145541392 7.08491384979991 -10.021822674493265 5 0 0
2212 461 2 0.5564 13.007689633545525 1.7809813423426453 -10.046526444421692 1 2 0
2992 721 2 0.5564 10.227320522857347 1.0320885553197021 -9.494381587672882 0 -1 0
3195 789 2 0.5564 8.1626878027382 5.100178456020852 -11.0712244455329 -1 -1 0
3194 789 1 -1.1128 7.974348132580519 5.281819231272009 -10.150480155456442 -1 -1 0
2990 721 1 -1.1128 10.031378017317506 1.6740909329908324 -10.176784773762474 0 -1 0
3179 784 1 -1.1128 9.64550774685116 4.583658612147469 -8.000546546657892 5 0 0
2210 461 1 -1.1128 12.625956689550723 2.621910479620779 -10.298224761169411 1 2 0
3529 900 2 0.5564 14.079497998058581 -0.43036613801410395 -10.932016292477282 -1 0 0
3895 1022 2 0.5564 12.794771274221862 6.555661808999703 -12.86130209412213 7 1 0
3458 877 1 -1.1128 10.888736155203686 -0.25804289551348897 -8.238625265752706 1 2 0
1359 177 2 0.5564 3.3546564507971444 0.46147423374484114 -5.706308289490637 -3 -2 0
3460 877 2 0.5564 9.982277434970417 -0.40013576350949304 -7.965904153468489 1 2 0
3691 954 2 0.5564 1.0834646137709478 -0.31169021344418035 -0.46302880574713423 -3 3 0
2440 537 2 0.5564 11.652620930409151 4.224365541172419 -7.785964877218924 -1 2 0
970 47 2 0.5564 11.428478728993086 -0.11700106303861399 -6.453089327284724 0 1 0
3893 1022 1 -1.1128 12.938910980522406 5.690524344181998 -12.477903763957979 7 1 0
3679 950 2 0.5564 4.053928923858943 6.587640775222732 -7.369746398813818 -1 -1 0
3818 997 1 -1.1128 1.8479073157464359 -0.3167599493696396 -6.034487839715184 0 -1 0
1923 365 2 0.5564 6.703394880754914 -0.5192672975108861 -5.154071311101072 -4 4 0
1206 126 2 0.5564 -1.332343987200184 -0.2273347204079442 -6.324799058777756 2 1 0
2037 403 2 0.5564 8.194519115338766 4.24288983598139 -1.3510109101943268 2 0 0
3355 842 2 0.5564 6.037825402331235 -0.14012986876895656 -12.890465156798655 -1 1 0
4157 1110 1 -1.1128 11.939860330876746 7.382903287554238 -4.679181898776126 3 -2 0
3165 779 2 0.5564 8.910728798597198 0.07510336796161868 -3.4695500057941153 2 5 0
1248 140 2 0.5564 6.117967355191038 0.12000628932029245 -2.144847108490141 4 0 0
3230 801 1 -1.1128 7.9916424722244 7.2848174938193155 -3.0124413859771795 -2 4 0
995 56 1 -1.1128 -0.35174033896185497 6.7645058006673775 -6.773569268208609 3 -1 0
1918 363 2 0.5564 2.2529270834739705 7.050485200664892 -2.3446003360572996 -2 -2 0
3142 771 2 0.5564 -0.40614016363783273 0.30329926668089774 -1.4217013739550712 2 -2 0
1334 169 1 -1.1128 -1.4119985140809876 0.2114189636777733 -13.062067611446935 -3 -2 0
1358 177 1 -1.1128 4.277859269910519 0.6915403255489732 -5.601396965164691 -3 -2 0
3140 771 1 -1.1128 -0.9362559564114826 0.5792915415352698 -2.1693900357254234 2 -2 0
3556 909 2 0.5564 3.0107480341566735 5.877094635303302 -9.114120669251434 2 -1 0
2611 594 2 0.5564 0.053682980721190945 4.223078366524385 -5.064064017355679 -1 3 0
1750 307 2 0.5564 -0.6760717622969113 1.6930227778960123 -4.836991454225255 1 1 0
1748 307 1 -1.1128 -0.7020431765524271 0.7377870850410393 -4.892550877229614 1 1 0
996 56 2 0.5564 -0.7168603930046438 5.984628890414686 -7.191555695192517 3 -1 0
2871 681 2 0.5564 4.38833466455167 5.690942611312033 -1.214035391041059 0 4 0
2890 687 2 0.5564 0.023735552563670208 4.175260427963883 -2.559430951021143 3 -1 0
1110 94 2 0.5564 -0.04560721983659291 6.350706288366333 -2.640655794871376 0 1 0
3740 971 1 -1.1128 0.9995201983250298 2.4463376988170786 -2.6627648662085206 2 3 0
3742 971 2 0.5564 0.37158297501319076 1.772566111164709 -2.4020697765557024 2 3 0
842 5 1 -1.1128 4.249992294083527 3.0783187879326395 -7.098719184535262 0 0 0
4281 1151 2 0.5564 2.2978975082981354 5.410453877985568 -4.859073982397273 3 0 0
4280 1151 1 -1.1128 1.3457157586238528 5.506358182989853 -4.878809743343437 3 0 0
4282 1151 2 0.5564 1.149627531986549 6.103338669344517 -4.156730899924962 3 0 0
2870 681 1 -1.1128 4.994088295127078 5.047581303028928 -0.8460932429711859 0 4 0
2610 594 2 0.5564 -1.4265359643781599 3.9359520062994995 -5.1997421985325065 -1 3 0
913 28 2 0.5564 0.8492707554353929 3.125160257778364 -6.8046441595719935 -1 -2 0
843 5 2 0.5564 4.448270735744051 3.8648908853318584 -6.590561127600258 0 0 0
2004 392 2 0.5564 7.745645184828058 3.328742990884782 -3.7188213978106677 2 -1 0
1360 177 2 0.5564 4.361045094824175 1.5476897226107693 -6.021310086818786 -3 -2 0
3741 971 2 0.5564 1.7226509382766362 2.3533087687315764 -2.0425541233814224 2 3 0
3554 909 1 -1.1128 2.7486020013114856 6.026076972127782 -8.205648493096293 2 -1 0
3891 1021 2 0.5564 4.038803467375192 3.916650799412002 -3.9142514361798217 -2 0 0
844 5 2 0.5564 4.564635931461278 3.2767433926637466 -7.980683519992157 0 0 0
3892 1021 2 0.5564 4.715033252781448 5.221343939660967 -4.278102167135167 -2 0 0
3890 1021 1 -1.1128 3.952895507112944 4.680380251566297 -4.484839527045285 -2 0 0
1749 307 2 0.5564 -0.8014097536548567 0.4472795611946356 -3.985925967426796 1 1 0
3141 771 2 0.5564 -1.7500680906930652 0.90046504577251 -1.7810732928270536 2 -2 0
2609 594 1 -1.1128 -0.5636031767626734 3.570712218540579 -5.395139457374418 -1 3 0
1916 363 1 -1.1128 3.2022293347074515 7.0056385375466945 -2.2303798183150665 -2 -2 0
1291 154 2 0.5564 12.101037440057627 4.121492403508772 -4.499224327482073 0 -2 0
1247 140 1 -1.1128 5.81105803278862 -0.08478664960446383 -1.2616151518443277 4 0 0
3577 916 2 0.5564 4.1655306202114835 2.234729186103951 -1.5513717295493896 3 1 0
2888 687 1 -1.1128 -0.5343805812295537 4.851483511396416 -2.175424506679136 3 -1 0
3555 909 2 0.5564 2.227002835104766 6.8281484081711294 -8.234835973421331 2 -1 0
3575 916 1 -1.1128 3.495715722429964 2.6095228146994436 -0.9794345204684917 3 1 0
997 56 2 0.5564 0.2942471430364109 6.424722723111911 -6.154309105756381 3 -1 0
2872 681 2 0.5564 4.516937658307751 4.218722847521879 -0.8855131111565975 0 4 0
3967 1046 2 0.5564 -1.0507064877141954 -0.18756729087550855 -9.543649123650916 -1 -1 0
1917 363 2 0.5564 3.3915135081346777 7.643273580784333 -1.5420297753434573 -2 -2 0
3590 921 1 -1.1128 13.164776382624648 7.023601802011668 -2.305204464041376 -2 3 0
4158 1110 2 0.5564 12.240691072473176 6.502290992227575 -4.903366148528998 3 -2 0
3231 801 2 0.5564 7.9703664229985005 6.850390768208042 -2.1597660494296487 -2 4 0
2003 392 1 -1.1128 7.291536112164083 3.0794385019407193 -4.523721959197495 2 -1 0
2438 537 1 -1.1128 12.590195720116613 4.0334369799995615 -7.758861942973831 -1 2 0
1441 204 2 0.5564 8.07741787708104 5.154128931873034 -7.062294602971946 0 -6 0
1419 197 2 0.5564 6.835325297150799 1.0191405347734566 -0.10845656503146109 6 2 0
1942 371 2 0.5564 13.32204687907768 5.50592817803167 -1.5759377165734798 -1 4 0
3521 898 1 -1.1128 8.828856435070017 2.3294164716247847 -6.722422440172389 1 -1 0
3523 898 2 0.5564 8.19138488515551 2.058978822587341 -7.383275122113348 1 -1 0
2738 637 1 -1.1128 5.365096557953274 6.911559009655809 -3.881393684621086 2 1 0
3414 862 2 0.5564 11.21720061197033 0.48482853893994715 -3.0197810295070977 2 -1 0
1709 294 1 -1.1128 5.0519330716003426 1.9806664827751606 -3.402652956850822 4 -4 0
3129 767 2 0.5564 2.4727583453413726 0.13354762717524177 -7.844432326198613 -3 -3 0
2739 637 2 0.5564 4.825812460168027 7.118559847209305 -4.644647861928056 2 1 0
2740 637 2 0.5564 4.774667637204079 7.015205844335685 -3.1351450608819724 2 1 0
3899 1024 1 -1.1128 7.5854558007192825 6.067554266863955 -0.37256796067336956 3 0 0
3232 801 2 0.5564 7.118496542686712 7.140492240915443 -3.377164217039882 -2 4 0
961 44 2 0.5564 10.531771342707103 3.4901603863405137 -2.4775382973164133 0 2 0
1710 294 2 0.5564 5.8213358525824 2.4716478416763685 -3.691081306398351 4 -4 0
1289 154 1 -1.1128 12.60685536193242 4.698616943564354 -5.071336644311627 0 -2 0
3901 1024 2 0.5564 6.779854796421173 5.600152277883174 -0.5934181966053376 3 0 0
3522 898 2 0.5564 8.29781217708372 2.6589735860661823 -5.997426008816158 1 -1 0
1440 204 2 0.5564 6.824275705025889 5.921026566150189 -6.697055685005491 0 -6 0
1940 371 1 -1.1128 13.332907850288738 4.563526096602136 -1.4086231383226477 -1 4 0
1439 204 1 -1.1128 7.311216956832131 5.123536466607241 -6.489378448367406 0 -6 0
2439 537 2 0.5564 12.756752940706763 3.534655211884205 -8.558680193478946 -1 2 0
3716 963 1 -1.1128 12.379150283727029 2.8228909482397286 -12.981294646729214 8 0 0
2036 403 1 -1.1128 8.674394823866256 3.5096246708074674 -1.7360742099057993 2 0 0
968 47 1 -1.1128 11.853375805923376 -0.32568506310481793 -5.621133762639028 0 1 0
3415 862 2 0.5564 10.777193767023219 0.4231618995269406 -4.467015961507013 2 -1 0
1695 289 2 0.5564 13.295080849464547 -0.25541494816959337 -2.439796430467545 0 -2 0
2443 538 2 0.5564 0.7344434900032564 -0.21429720719055906 -13.465848486236695 0 0 0
892 21 2 0.5564 13.736111664791235 5.926013737133412 -7.699884355203092 -4 -1 0
3677 950 1 -1.1128 4.85812371244608 6.705041613629302 -6.86405826888622 -1 -1 0
2601 591 2 0.5564 6.76392880449598 -0.4089183463131789 -10.626698306836918 -5 3 0
3456 876 2 0.5564 13.811876207901257 3.5050651334098 -5.0776557752287115 -4 -1 0
3527 900 1 -1.1128 13.751158068552087 -0.05021165114446026 -10.117211057783928 -1 0 0
2441 538 1 -1.1128 1.5086290528457407 -0.511286917514863 -12.987657330455574 0 0 0
2722 631 2 0.5564 10.240465600997368 7.589551559317785 -1.0525934196629845 0 0 0
3678 950 2 0.5564 4.943770024149112 7.653362670032774 -6.766160835680538 -1 -1 0
2600 591 1 -1.1128 6.615179204258286 -0.592563773181787 -9.699130338957241 -5 3 0
4223 1132 1 -1.1128 14.068145089149406 -0.07296370676965969 -4.133102545606564 3 2 0
1111 94 2 0.5564 -0.45313256734734636 7.54551299216732 -3.476273509976355 0 1 0
1538 237 1 -1.1128 2.399598858868925 -0.438825240593595 15.30136981812288 2 -2 0
1154 109 1 -1.1128 3.54773465399099 3.2480722689405455 3.2449651944174676 1 2 0
1348 173 2 0.5564 1.9658380634844734 4.660838867754279 5.012216241107051 -2 4 0
1346 173 1 -1.1128 1.667619665081432 5.557010694272109 5.167699613289748 -2 4 0
1156 109 2 0.5564 4.312914239752734 3.1319501277391537 3.808215556305126 1 2 0
1966 379 2 0.5564 1.6678537285441961 6.5783895401684775 3.117312314639433 -2 -2 0
2215 462 2 0.5564 10.000414210854132 0.4639119195215369 1.7432142952631542 2 -3 0
2069 414 1 -1.1128 3.1886182163233765 0.9253871152956596 1.385852833280505 2 2 0
2070 414 2 0.5564 2.478748492438771 0.6573470612420274 0.8023500715753026 2 2 0
1103 92 1 -1.1128 -0.7803565862171705 3.3746369818567663 2.1128827195904565 -2 0 0
3744 972 2 0.5564 0.8586733033767926 2.1832868351260926 5.216859437617228 2 -2 0
3743 972 1 -1.1128 1.6630130013051696 2.684908644243229 5.0840173244655675 2 -2 0
2071 414 2 0.5564 2.85338409728724 1.7045317961877258 1.8294584154842457 2 2 0
3745 972 2 0.5564 2.0802414628555796 2.701932668207796 5.945332885180057 2 -2 0
1155 109 2 0.5564 2.8152903972278525 2.9150993328441377 3.7635129616602874 1 2 0
1347 173 2 0.5564 2.399502925943995 5.978779584792769 5.617911659515804 -2 4 0
1378 183 2 0.5564 13.70492532117481 3.2549390384704884 17.341211772035155 0 1 0
2690 621 1 -1.1128 3.0186594240598423 2.7500634492767673 7.353700015936011 5 0 0
2692 621 2 0.5564 3.928810582599526 3.045352380289248 7.32797778732384 5 0 0
2865 679 2 0.5564 0.4415403188579655 6.048167866058595 0.7374451139467636 2 1 0
3427 866 2 0.5564 3.9758967658407056 4.619586539293571 1.9559730505503092 -3 1 0
2632 601 2 0.5564 6.465931992046097 7.182622935123545 6.7516057975389305 1 -2 0
4344 1172 2 0.5564 13.489615538004609 4.998964103875484 0.38595664240120664 0 -1 0
1835 336 1 -1.1128 -1.2796972771120902 5.694627303978086 5.297515306995023 -2 0 0
1964 379 1 -1.1128 1.6720002522110267 6.5166374779263725 2.162115208999081 -2 -2 0
2864 679 1 -1.1128 -0.20054706025330193 5.510509427941961 0.27389371562090387 2 1 0
1801 324 2 0.5564 14.010552496235436 0.16733737081099814 2.415060365664409 -3 1 0
2686 619 2 0.5564 5.779413612340822 1.2855860395617877 5.901601117243946 2 3 0
3690 954 2 0.5564 0.44246863377592444 0.6081360844468275 0.5542912436187869 -3 3 0
4390 1187 2 0.5564 2.051236209990223 7.293568464446164 7.7359820405501365 0 1 0
4085 1086 1 -1.1128 3.1444009047606345 7.189300571930907 11.046631539831447 0 0 0
2590 587 2 0.5564 9.836617416614796 1.515786409656765 16.763036589069216 1 1 0
3204 792 2 0.5564 -1.6781358532578508 4.548863602259258 11.891939039230019 -1 1 0
2433 535 2 0.5564 -0.3165732245064548 0.08426275021625415 4.9211698633622 -1 4 0
862 11 2 0.5564 13.715911604039052 7.486143616329186 11.187393488499506 0 0 0
1372 181 2 0.5564 6.153393633332002 7.169669577401565 13.774990047936926 3 0 0
1836 336 2 0.5564 -0.3696014443862841 5.812878511539453 5.0255290378135005 -2 0 0
3425 866 1 -1.1128 4.0367953103281105 5.49576575366982 1.5753959845047207 -3 1 0
2866 679 2 0.5564 -0.3457121096871468 4.7599625139218045 0.8499482256239903 2 1 0
495 2 4 0 13.5083 6.381 20.3563331933874 0 0 0
4398 1190 2 0.5564 -0.5171408346461807 0.4234304235712072 2.9078127360129287 -2 -3 0
1965 379 2 0.5564 2.5673434543510814 6.259330705013437 1.9421462548095023 -2 -2 0
1656 276 2 0.5564 12.53707236001379 2.298622235534078 2.435570026459741 -1 3 0
1655 276 1 -1.1128 13.358949195412112 1.8868789399267838 2.7024375192064665 -1 3 0
1105 92 2 0.5564 -0.7750106569157179 2.4253147690395034 2.235323301624173 -2 0 0
3137 770 1 -1.1128 10.65431803666885 7.117593026176872 12.31746954183586 5 -3 0
2926 699 2 0.5564 -1.5493765700889803 2.6936336189309786 17.181083746815442 4 3 0
1420 197 2 0.5564 8.241555976457963 0.7969097143781739 0.4063494021142505 6 2 0
2029 400 2 0.5564 6.598777960987399 2.597671703586119 3.828385557492463 1 -1 0
2027 400 1 -1.1128 5.882386559525742 2.4703840120707223 4.4503291344362665 1 -1 0
2028 400 2 0.5564 6.1123209392158895 3.0226584834018815 5.197561426285597 1 -1 0
437 2 4 0 12.2802 0 20.3563331933874 0 0 0
3070 747 2 0.5564 10.199741929674406 6.523916092813909 10.610585911933624 -5 -1 0
4343 1172 1 -1.1128 13.548290846522667 5.462435216046053 1.2214112230185046 0 -1 0
2731 634 2 0.5564 10.441419489151029 6.110417088399741 1.3701554371861895 4 -4 0
2196 456 2 0.5564 12.798807506177933 5.104330527408329 5.680435136166705 -1 3 0
2133 435 2 0.5564 6.837678800327256 5.103930550552629 2.9574444088695135 -3 1 0
2132 435 1 -1.1128 6.865661337036734 6.056312874405826 2.865689487223246 -3 1 0
2729 634 1 -1.1128 11.005867365320528 5.676236637979033 2.0097791190876624 4 -4 0
4397 1190 1 -1.1128 -0.47247456226328005 0.48665935504958474 1.953747587993809 -2 -3 0
4045 1072 2 0.5564 7.628635684232755 2.9787197007025954 1.5967646662102146 0 0 0
4043 1072 1 -1.1128 7.474361590161937 3.328321333819856 2.4743821512283857 0 0 0
3426 866 2 0.5564 4.528806745433459 5.3712325951513264 0.7638223446018213 -3 1 0
1639 270 2 0.5564 10.172356652294908 4.4535367199524725 5.15430108059084 -3 2 0
1637 270 1 -1.1128 10.919555799166814 5.013300764054446 4.943135145988054 -3 2 0
1391 188 1 -1.1128 10.206113285473409 7.619539430463275 4.685216092386477 -2 -2 0
916 29 2 0.5564 10.54640913151088 2.694718570817908 1.3588631371775537 2 -3 0
4044 1072 2 0.5564 8.347302899333569 3.402614138219663 2.8599861559403092 0 0 0
3650 941 1 -1.1128 1.6208627681929975 6.596681449273026 14.137290706242025 -3 -1 0
2730 634 2 0.5564 10.69861044781488 5.996884863321571 2.857723878751187 4 -4 0
2571 581 2 0.5564 12.355132155723982 0.22818229674544419 5.759455352434252 -5 2 0
914 29 1 -1.1128 10.43012114553588 3.004191640583961 2.257160775915895 2 -3 0
1638 270 2 0.5564 10.590105062193071 5.905183560707686 5.0537736694936735 -3 2 0
915 29 2 0.5564 10.416481063097649 3.9583710935056686 2.1823908716368785 2 -3 0
3000 724 2 0.5564 8.943037084590793 2.190836844562647 5.832656383439126 2 -2 0
4399 1190 2 0.5564 -1.3035749368532632 0.12173434233542826 1.6498790251654267 -2 -3 0
2195 456 1 -1.1128 13.5053487757936 4.709131138521857 6.19116930603881 -1 3 0
3695 956 1 -1.1128 -1.7634595232632095 2.2734074334526544 14.184245500922648 1 3 0
3016 729 2 0.5564 5.933554146977795 5.089447398003747 6.286670739400576 2 6 0
3014 729 1 -1.1128 5.844623889667892 4.149150554750143 6.442129200711592 2 6 0
1609 260 2 0.5564 9.591583787418603 -0.029142791649677542 6.491206036710477 -2 -1 0
1608 260 2 0.5564 9.186052904172575 -0.33232481712371514 5.064488151490448 -2 -1 0
1607 260 1 -1.1128 9.316887566864526 0.39183784541835776 5.676619721327457 -2 -1 0
3015 729 2 0.5564 6.36367231337187 3.985959569522058 7.22965059920829 2 6 0
1837 336 2 0.5564 -1.3690109700088473 6.238866630101621 6.0798590927252665 -2 0 0
3900 1024 2 0.5564 7.287240488202052 6.8770614397258 0.042158768673749986 3 0 0
2134 435 2 0.5564 6.069855052146808 6.274143691353941 2.3804315937686282 -3 1 0
2572 581 2 0.5564 10.967729194318633 -0.15405684683219226 5.2894486655835316 -5 2 0
3651 941 2 0.5564 0.7754919053734116 7.023622017097379 13.998341462178738 -3 -1 0
2197 456 2 0.5564 13.212612084171978 3.812053984120445 6.351764466328432 -1 3 0
435 2 4 0 8.59617 2.127 20.3563331933874 0 0 0
4338 1170 2 0.5564 8.606881398818286 7.040060909179345 8.49011626017842 -6 -1 0
3334 835 2 0.5564 13.239856717925901 0.009639910203504451 15.925426067408072 3 1 0
4345 1172 2 0.5564 12.642528290881035 5.527008776823612 1.5241607205586796 0 -1 0
481 2 4 0 7.36814 4.254 20.3563331933874 0 0 0
3068 747 1 -1.1128 9.655658693254804 6.0522932494407105 9.979889832883172 -5 -1 0
2691 621 2 0.5564 2.6127338946114977 3.2828528872394815 8.03750690883767 5 0 0
442 2 4 0 13.5083 0.709 20.3563331933874 0 0 0
1104 92 2 0.5564 -1.5703309022356502 3.6705119333472163 2.565249943365686 -2 0 0
492 2 4 0 12.2802 7.09 20.3563331933874 0 0 0
2684 619 1 -1.1128 5.771389133569285 0.6934337293234213 6.653614477194476 2 3 0
4379 1184 1 -1.1128 3.4675827311423144 0.0285991736929529 7.823822921126847 0 4 0
3205 792 2 0.5564 -1.603928543386624 5.486255435002403 13.078398900329262 -1 1 0
4242 1138 2 0.5564 3.80758331492998 0.15842837657779624 10.958755282608154 2 -1 0
2685 619 2 0.5564 4.8442013640687716 0.509481714135354 6.804341181853818 2 3 0
3652 941 2 0.5564 1.5885898153367268 5.815166248567935 13.58553948978899 -3 -1 0
1988 387 1 -1.1128 3.1486998108348434 7.659973070011616 6.393210385806679 -1 2 0
1448 207 1 -1.1128 1.279196509273458 4.044351992958807 13.145649222857866 -3 -1 0
3337 836 2 0.5564 4.628225371533589 0.14492920887238075 2.642162846559855 -1 -3 0
2570 581 1 -1.1128 11.84794606373363 -0.5078570215409702 5.417047507404982 -5 2 0
1204 125 2 0.5564 -0.9487950740474029 -0.0620057381873989 9.65583942542465 4 -1 0
4068 1080 2 0.5564 -0.36331812968237204 3.5977933777874487 9.474728808364558 -2 4 0
3034 735 2 0.5564 6.456978384872582 1.4634438584738498 12.721320315214227 2 1 0
921 31 2 0.5564 4.769959652488222 4.02019131997867 12.551683704979059 -1 -2 0
2673 615 2 0.5564 13.914920253060306 2.2402429159484174 10.85906184320264 4 3 0
4289 1154 1 -1.1128 0.5166774930858272 0.6424499960429163 10.976246421731453 2 -1 0
3513 895 2 0.5564 5.04720258187249 2.2656067455978395 14.045673337629383 -1 -1 0
4291 1154 2 0.5564 1.1118074854759112 0.7532872636244337 11.717710218872405 2 -1 0
858 10 2 0.5564 1.9560958278635014 2.2625097047670275 13.443510296388126 -1 -3 0
1606 259 2 0.5564 -1.4106713207694852 5.341207008834911 9.084196605781381 3 1 0
1039 70 2 0.5564 3.0490453400877917 2.525491156040714 10.71249903629642 2 -1 0
1037 70 1 -1.1128 2.691456677498669 3.413380491394086 10.70857352656157 2 -1 0
1038 70 2 0.5564 3.4554990696458248 3.9793241588544515 10.598212400516607 2 -1 0
857 10 1 -1.1128 1.9809469151508174 1.3506222342966914 13.153549581084626 -1 -3 0
3514 895 2 0.5564 4.112135475649093 1.6991382348145025 12.998455801542725 -1 -1 0
1450 207 2 0.5564 1.714540048606082 3.8761361780402765 12.309935998338414 -3 -1 0
3512 895 1 -1.1128 4.9321214809825165 2.1826018306870525 13.09904613109009 -1 -1 0
4381 1184 2 0.5564 2.9093141377647154 0.7087463539789687 7.447034427527251 0 4 0
4067 1080 1 -1.1128 0.42737409438627755 3.181030385411746 9.132165081465018 -2 4 0
1146 106 2 0.5564 0.4656870736861178 1.2970208853272107 8.443676190417364 0 -2 0
4069 1080 2 0.5564 1.0957412059287859 3.352603265724338 9.795552465026049 -2 4 0
1145 106 1 -1.1128 0.502050245051395 0.5906816678243897 7.7986981012410475 0 -2 0
1847 340 1 -1.1128 7.449334096056817 3.0440047627841595 8.992596119136543 1 -1 0
859 10 2 0.5564 2.075711665954128 0.8446783839262287 13.960564944523515 -1 -3 0
1147 106 2 0.5564 -0.008479981835439064 0.9161624601661381 7.057309726462002 0 -2 0
2434 535 2 0.5564 -1.495818214239541 1.0052505137875143 5.1515228678153475 -1 4 0
3282 818 2 0.5564 5.724757958650557 0.5919040576213586 10.301665489402321 1 0 0
1449 207 2 0.5564 0.39520162630832717 4.3210456873784215 12.904333428635578 -3 -1 0
4086 1086 2 0.5564 3.470802514035125 6.500879971003229 11.626091437102023 0 0 0
3158 777 1 -1.1128 7.961737809653123 4.097397513815741 16.549444321787533 1 3 0