LAMMPS data file via write_data, version 2 Aug 2023, timestep = 6750000, units = real

4432 atoms
4 atom types
2400 bonds
1 bond types
1200 angles
1 angle types
0 impropers
1 improper types

-1.8420299999999998 30.08661 xlo xhi
-0.709 33.323 ylo yhi
-150 150 zlo zhi

Masses

1 15.9994
2 1.00794
3 12.0107
4 12.0107

Pair Coeffs # lj/cut/tip4p/long

1 0.1852 3.1589
2 0 0
3 0.0859 3.3997
4 0.0859 3.3997

Bond Coeffs # harmonic

1 5000 0.9572

Angle Coeffs # harmonic

1 500 104.52

Atoms # full

1 1 3 0 0 0 -16.168203030381882 0 0 0
2 1 3 0 -1.22802 0.709 -16.168203030381882 0 0 0
3 1 3 0 -1.22802 2.127 -16.168203030381882 0 0 0
4 1 3 0 0 2.836 -16.168203030381882 0 0 0
5 1 3 0 2.45605 0 -16.168203030381882 0 0 0
6 1 3 0 1.22802 0.709 -16.168203030381882 0 0 0
7 1 3 0 1.22802 2.127 -16.168203030381882 0 0 0
8 1 3 0 2.45605 2.836 -16.168203030381882 0 0 0
9 1 3 0 4.9121 0 -16.168203030381882 0 0 0
10 1 3 0 3.68407 0.709 -16.168203030381882 0 0 0
11 1 3 0 3.68407 2.127 -16.168203030381882 0 0 0
12 1 3 0 4.9121 2.836 -16.168203030381882 0 0 0
14 1 3 0 6.14012 0.709 -16.168203030381882 0 0 0
15 1 3 0 6.14012 2.127 -16.168203030381882 0 0 0
53 1 3 0 0 4.254 -16.168203030381882 0 0 0
54 1 3 0 -1.22802 4.963 -16.168203030381882 0 0 0
55 1 3 0 -1.22802 6.381 -16.168203030381882 0 0 0
56 1 3 0 0 7.09 -16.168203030381882 0 0 0
57 1 3 0 2.45605 4.254 -16.168203030381882 0 0 0
58 1 3 0 1.22802 4.963 -16.168203030381882 0 0 0
59 1 3 0 1.22802 6.381 -16.168203030381882 0 0 0
60 1 3 0 2.45605 7.09 -16.168203030381882 0 0 0
61 1 3 0 4.9121 4.254 -16.168203030381882 0 0 0
62 1 3 0 3.68407 4.963 -16.168203030381882 0 0 0
63 1 3 0 3.68407 6.381 -16.168203030381882 0 0 0
64 1 3 0 4.9121 7.09 -16.168203030381882 0 0 0
66 1 3 0 6.14012 4.963 -16.168203030381882 0 0 0
67 1 3 0 6.14012 6.381 -16.168203030381882 0 0 0
13 1 3 0 7.36814 0 -16.168203030381882 0 0 0
16 1 3 0 7.36814 2.836 -16.168203030381882 0 0 0
17 1 3 0 9.82419 0 -16.168203030381882 0 0 0
18 1 3 0 8.59617 0.709 -16.168203030381882 0 0 0
19 1 3 0 8.59617 2.127 -16.168203030381882 0 0 0
20 1 3 0 9.82419 2.836 -16.168203030381882 0 0 0
21 1 3 0 12.2802 0 -16.168203030381882 0 0 0
22 1 3 0 11.0522 0.709 -16.168203030381882 0 0 0
23 1 3 0 11.0522 2.127 -16.168203030381882 0 0 0
24 1 3 0 12.2802 2.836 -16.168203030381882 0 0 0
26 1 3 0 13.5083 0.709 -16.168203030381882 0 0 0
27 1 3 0 13.5083 2.127 -16.168203030381882 0 0 0
65 1 3 0 7.36814 4.254 -16.168203030381882 0 0 0
68 1 3 0 7.36814 7.09 -16.168203030381882 0 0 0
69 1 3 0 9.82419 4.254 -16.168203030381882 0 0 0
70 1 3 0 8.59617 4.963 -16.168203030381882 0 0 0
71 1 3 0 8.59617 6.381 -16.168203030381882 0 0 0
72 1 3 0 9.82419 7.09 -16.168203030381882 0 0 0
73 1 3 0 12.2802 4.254 -16.168203030381882 0 0 0
74 1 3 0 11.0522 4.963 -16.168203030381882 0 0 0
75 1 3 0 11.0522 6.381 -16.168203030381882 0 0 0
76 1 3 0 12.2802 7.09 -16.168203030381882 0 0 0
78 1 3 0 13.5083 4.963 -16.168203030381882 0 0 0
79 1 3 0 13.5083 6.381 -16.168203030381882 0 0 0
1394 189 1 -1.1128 3.927811392976152 1.3683751984086905 -13.159371871925346 5 3 0
3289 820 2 0.5564 11.037140043012593 -0.5926752648551384 -5.878701391292257 3 0 0
2556 576 2 0.5564 -0.056622524764177354 6.074625950080396 -12.772920003981598 -4 1 0
3498 890 2 0.5564 0.37777446357786987 2.1993567519806025 -12.034332942980841 -1 0 0
1035 69 2 0.5564 4.270584175105688 3.0709935422054992 -10.055311846186278 4 1 0
2005 392 2 0.5564 4.200841747342053 4.3715369369438175 -11.608620752939201 1 -1 0
1034 69 1 -1.1128 4.021663127301684 3.9919509448292976 -9.977147369642823 4 1 0
2003 392 1 -1.1128 4.294014441853304 4.305945979108768 -12.55901715491905 1 -1 0
1777 316 2 0.5564 2.0623222567527737 2.979226901973297 -10.262804566183826 1 0 0
3497 890 1 -1.1128 -0.36055463216976796 2.5144206553657757 -12.555718888370883 -1 0 0
1775 316 1 -1.1128 1.8533283603697577 2.2840594539216346 -10.886740624447185 1 0 0
2004 392 2 0.5564 3.9921677950030516 3.4222644665675617 -12.769324726320502 1 -1 0
1493 222 1 -1.1128 1.6249665190937352 4.954029393859977 -10.130205230437415 -6 1 0
1495 222 2 0.5564 2.5612972844901747 4.768011230915331 -10.060034648562043 -6 1 0
3499 890 2 0.5564 0.01903471456268468 3.17598327801711 -13.134061740131783 -1 0 0
1395 189 2 0.5564 3.1123991283244123 0.8770467532630066 -13.259045252152312 5 3 0
1494 222 2 0.5564 1.4119275269036764 4.771385845609425 -11.045350776060108 -6 1 0
1036 69 2 0.5564 4.4016920950044165 4.273466647928474 -9.144945705430668 4 1 0
2311 494 2 0.5564 1.0025794436764077 6.669983174110154 -10.290552177326061 0 4 0
2557 576 2 0.5564 1.4503671169745989 5.935696035334097 -12.812637097715704 -4 1 0
2667 613 2 0.5564 8.34614344815334 -0.030268449685811494 -0.04944532919055396 2 0 0
3732 968 2 0.5564 3.802000072031479 0.20553048221502043 -6.960536526019166 -4 5 0
2820 664 2 0.5564 6.51045506650126 3.849587103892374 -13.464853208037542 -4 1 0
2555 576 1 -1.1128 0.6436831301305154 5.4220898384167615 -12.771366422129844 -4 1 0
856 9 2 0.5564 5.005239640230886 6.213696551199539 -12.780333332652004 0 1 0
4216 1129 2 0.5564 -1.7513317297847335 2.116530912550418 -0.9485031808962943 3 2 0
4185 1119 2 0.5564 -1.4100596427233776 1.6434090232412573 -5.539757758455356 1 -1 0
2645 606 1 -1.1128 7.154490942190824 7.2949414487941775 -0.9281451112749906 1 1 0
3084 752 2 0.5564 4.657071418220256 7.401330657240759 -6.734344288247523 2 0 0
3125 766 1 -1.1128 3.6202480684961382 6.8736057967376825 -8.496526999573147 1 -1 0
2995 722 2 0.5564 12.413993087523744 1.6830665669965394 -1.1902602979097372 -1 4 0
3411 861 2 0.5564 13.808143733140232 0.10356150320893126 -2.3005413150656997 -1 2 0
3619 930 2 0.5564 6.389933976144253 1.2678971674937896 -7.088227239209936 -3 -3 0
3288 820 2 0.5564 9.954072102149903 0.3557782913828025 -6.346993313949803 3 0 0
1159 110 2 0.5564 2.0217550341165227 0.8162401031555001 -6.375579671622839 0 1 0
3319 830 2 0.5564 7.14070086584817 3.3037732428105566 -10.02808309097817 2 0 0
1396 189 2 0.5564 4.490534397674531 1.044717979808223 -13.862806928572015 5 3 0
2993 722 1 -1.1128 13.296256223175716 1.3215323366056537 -1.105779039342193 -1 4 0
1776 316 2 0.5564 2.4633389921516478 1.5781402333846004 -10.672731724367512 1 0 0
854 9 1 -1.1128 4.951770541054287 7.098794132030031 -12.419810669159064 0 1 0
4286 1153 1 -1.1128 6.749355126368624 3.0142575264303444 -6.762375002631205 1 0 0
3762 978 2 0.5564 -1.167780628967166 3.445024617626137 -3.066719444204219 2 -3 0
4287 1153 2 0.5564 5.817370810011562 3.128524684862486 -6.948344614212332 1 0 0
3731 968 1 -1.1128 3.0167613151126416 -0.30648358860405644 -7.154128735644789 -4 5 0
1153 108 2 0.5564 5.86935339889026 1.8382320955287088 -1.9155508617340742 -1 2 0
3455 876 1 -1.1128 -1.618246559761687 2.9193829071254314 -6.985583394069902 -4 -1 0
1477 216 2 0.5564 -1.8069372592148911 7.753509686479757 -0.04852391385841559 2 -1 0
3827 1000 1 -1.1128 8.933422954273505 5.481454586333473 -12.352905935134535 2 -3 0
4184 1119 1 -1.1128 -0.9313906837347903 1.05721950606442 -4.953676529602336 1 -1 0
2819 664 1 -1.1128 7.425882972941557 3.6279028534036786 -13.294324169234297 -4 1 0
1260 144 2 0.5564 13.270568174076848 0.27266240095976135 -5.814431866202723 2 3 0
3318 830 2 0.5564 7.647162187026303 4.574248882266615 -10.677148328610944 2 0 0
3609 927 2 0.5564 11.432551866736123 3.4407933675827813 -0.8471097577697487 -4 -2 0
3655 942 2 0.5564 11.783341698011887 3.5685742355449306 -11.75250468620121 0 1 0
4186 1119 2 0.5564 -0.8863568176091748 1.5319319725145004 -4.1237050066153325 1 -1 0
2821 664 2 0.5564 7.423013700400835 2.679515772207188 -13.164737721324512 -4 1 0
3481 884 2 0.5564 4.408950646081552 0.024078912520208665 -10.395514238724417 -5 -1 0
2867 680 1 -1.1128 10.103730647372112 0.3005256683373296 -12.593863311439023 -1 -1 0
2398 523 2 0.5564 8.337961472237845 0.6543967552412056 -13.029713556287096 1 3 0
2396 523 1 -1.1128 7.474472268451353 0.9970003317599175 -12.798963964320635 1 3 0
2397 523 2 0.5564 6.867338684328698 0.2950119199734843 -13.033130688574266 1 3 0
2918 697 1 -1.1128 12.413780205208006 1.904552559819077 -12.131834524814888 2 2 0
2920 697 2 0.5564 12.559318376550443 1.562957578871279 -11.249581482282775 2 2 0
2441 538 1 -1.1128 10.073468223039551 4.9051587197827216 -6.060040469148429 0 0 0
2442 538 2 0.5564 9.985088288334794 5.06331787230911 -6.99993783026438 0 0 0
2443 538 2 0.5564 10.221172233627266 5.772719550809478 -5.683537673156313 0 0 0
1246 139 2 0.5564 12.34408752196396 3.518806193209692 -8.772951500873507 0 1 0
1244 139 1 -1.1128 11.420504810131561 3.2836903047774237 -8.683780614766578 0 1 0
1245 139 2 0.5564 10.98066972832811 4.110111223599369 -8.484250973715968 0 1 0
2919 697 2 0.5564 11.642951648252007 1.4330220007693668 -12.447617514436933 2 2 0
3730 967 2 0.5564 12.55148703202493 0.8946978088676153 -8.92853508534636 -1 0 0
2187 453 2 0.5564 0.8220602981764773 -0.354129076626883 -13.343778524644637 5 5 0
2868 680 2 0.5564 9.798762545024722 0.4309481971120403 -11.695967190310904 -1 -1 0
3633 935 2 0.5564 5.580560154481881 3.399039285964571 -0.8234189543998264 -3 -2 0
3653 942 1 -1.1128 11.705158985171725 4.503584533620863 -11.941912853332779 0 1 0
3654 942 2 0.5564 12.535063008170797 4.734071785125305 -12.359485680266156 0 1 0
3492 888 2 0.5564 8.636003187104603 5.033586777681985 -8.889283935665608 1 0 0
3761 978 1 -1.1128 -0.7527064604604602 2.681964457566804 -2.6646139831776963 2 -3 0
3491 888 1 -1.1128 9.50948122495999 5.371357629154362 -8.691342384339555 1 0 0
3667 946 2 0.5564 8.521481692099206 2.4849992969002668 -7.308073735471524 0 -2 0
3665 946 1 -1.1128 9.305700622412349 1.9406162020555024 -7.377943660601663 0 -2 0
3493 888 2 0.5564 9.862590391672317 5.636072109131483 -9.540737665168567 1 0 0
1828 333 2 0.5564 12.181594064868978 6.943874011432264 -9.441247144540052 4 0 0
1259 144 1 -1.1128 13.072989547934156 -0.561979477125186 -5.389496220771292 2 3 0
2935 702 2 0.5564 3.346811237312038 4.600804344356519 -1.1048153425583824 -4 1 0
4288 1153 2 0.5564 6.789296472257644 2.8678462534332185 -5.817281225645253 1 0 0
1827 333 2 0.5564 12.399150969815084 5.788305995101615 -10.394783946497727 4 0 0
4234 1135 2 0.5564 -1.1270135489254651 6.48190906945295 -2.054001078927572 4 0 0
2791 654 2 0.5564 13.746050562938507 5.020411494465998 -8.244035258864992 0 2 0
3489 887 2 0.5564 1.7902941720147207 6.140832371012072 -0.0071538527457896545 3 4 0
1826 333 1 -1.1128 12.689140621493502 6.140058335115847 -9.553113308878807 4 0 0
1419 197 2 0.5564 9.39440088312746 0.8981670752691938 -9.035958926952425 7 1 0
1152 108 2 0.5564 4.862498656311059 1.150128757272329 -2.812575485045784 -1 2 0
2186 453 1 -1.1128 1.6802838449823154 -0.20590869356913666 -12.946643514563021 5 5 0
3562 911 2 0.5564 -1.5683993036640798 3.1426251141624535 -10.190438868183028 2 -2 0
2648 607 1 -1.1128 3.0691518514477334 0.3101910083355187 -2.582746073217439 1 -1 0
4210 1127 2 0.5564 4.148332229382734 4.211415392183739 -5.90365674965556 3 -1 0
847 6 2 0.5564 9.038957621846516 4.049435514505214 -0.9233694341462138 0 2 0
3479 884 1 -1.1128 4.216043347756837 0.9601173802748024 -10.448909090060026 -5 -1 0
3642 938 2 0.5564 14.073333507358695 2.0943715156609732 -12.621910548083033 -5 1 0
3617 930 1 -1.1128 5.845788645041609 0.48310146229635154 -7.023140715801543 -3 -3 0
3287 820 1 -1.1128 10.117254451556121 -0.36679467870543314 -5.740778581458379 3 0 0
2933 702 1 -1.1128 4.196668247416483 4.696328973627416 -1.534758063415789 -4 1 0
846 6 2 0.5564 8.862837269516385 5.2060694437510655 -1.884139578726849 0 2 0
2650 607 2 0.5564 2.828651859464553 -0.026204245518314077 -1.7194786485771487 1 -1 0
1157 110 1 -1.1128 1.517954408698936 1.5055575731269855 -5.942840894413505 0 1 0
1418 197 1 -1.1128 9.559140573304377 0.4578885991459808 -9.869775270819915 7 1 0
4209 1127 2 0.5564 3.176194933451791 4.034993545433002 -7.050705502064472 3 -1 0
1169 114 1 -1.1128 12.387609002205151 2.0046590854201973 -6.569024454219637 2 1 0
3083 752 1 -1.1128 4.90555834240817 7.498479797002178 -5.815077857958681 2 0 0
4208 1127 1 -1.1128 4.039848536731366 3.7615567909090837 -6.741565959601498 3 -1 0
4420 1197 2 0.5564 5.465697431969925 5.9887605556338075 -4.807991756331012 1 3 0
1185 119 2 0.5564 7.444540285918144 6.077682534060486 -6.1860695624017294 0 -2 0
3012 728 2 0.5564 1.6872272558352899 2.5342386030092325 -4.257888033226204 -2 2 0
3680 951 1 -1.1128 1.0387003385573317 3.9604325164020326 -7.524789146784967 -1 0 0
3681 951 2 0.5564 1.2962187710570965 3.0488552776990434 -7.387148357682298 -1 0 0
3011 728 1 -1.1128 1.9626513533265502 2.860724355588393 -3.4012758072235267 -2 2 0
3682 951 2 0.5564 1.2434366626804794 4.131466985494901 -8.444063528155091 -1 0 0
2104 425 2 0.5564 7.842296306145482 0.2941845005319877 -3.947939929413803 3 -3 0
3013 728 2 0.5564 2.488167051521643 2.1511861848303777 -3.0316487540639367 -2 2 0
2789 654 1 -1.1128 13.790694682148265 4.252110754671331 -7.674861475898321 0 2 0
4418 1197 1 -1.1128 5.2000063775513405 5.142168735695277 -4.448933386959692 1 3 0
1689 287 2 0.5564 0.510576093801664 5.129542508215151 -3.3353376298525403 3 -4 0
3317 830 1 -1.1128 7.340485111482114 4.221202958988419 -9.84195937881566 2 0 0
1974 382 2 0.5564 4.697697268704847 6.818422287836826 -2.790291749659733 -7 3 0
1973 382 1 -1.1128 4.915949104917518 7.667297729003289 -2.4055709022730856 -7 3 0
1186 119 2 0.5564 6.496338141287537 7.239312891627575 -5.977673284747978 0 -2 0
1184 119 1 -1.1128 7.412631996051202 7.034084696302258 -6.16348834812199 0 -2 0
2378 517 1 -1.1128 7.314048154198696 3.588457762115863 -3.7626996827988575 1 -4 0
4419 1197 2 0.5564 5.983661006591906 4.810919217548962 -4.010305557587634 1 3 0
3829 1000 2 0.5564 8.326868395487065 4.834798039727954 -12.71368767371743 2 -3 0
2380 517 2 0.5564 6.786984736154218 2.926085995376186 -3.3158205251575494 1 -4 0
2379 517 2 0.5564 7.844213556474447 3.9812486753059595 -3.0692491689476684 1 -4 0
1688 287 1 -1.1128 0.793647797794097 5.795241151206168 -2.708481247751118 3 -4 0
2869 680 2 0.5564 10.663556028418638 -0.4744778304785606 -12.546985662083973 -1 -1 0
1690 287 2 0.5564 1.5861943225355382 5.431566828229957 -2.313710507042031 3 -4 0
3197 790 1 -1.1128 -0.6808480294207533 5.994267046180176 -6.493686397707897 -5 -4 0
1167 113 2 0.5564 -1.7105636714003563 -0.4394102104422243 -13.06978384311301 -3 4 0
1346 173 1 -1.1128 13.880748237575554 4.533426814394497 -4.760038762976812 -3 6 0
3763 978 2 0.5564 0.17874203423890808 2.7847735515032954 -2.8597247215231523 2 -3 0
3198 790 2 0.5564 0.02214803102595518 5.47810238102422 -6.888154892182741 -5 -4 0
2649 607 2 0.5564 2.326198465452933 0.08611872415198035 -3.1431432872457505 1 -1 0
2647 606 2 0.5564 6.340802732995267 7.333722416417758 -1.4307794861654903 1 1 0
3618 930 2 0.5564 5.994633439732499 0.1609198196128918 -6.134161758917123 -3 -3 0
3456 876 2 0.5564 -0.7406843787926397 3.2592291757421856 -7.160576982297476 -4 -1 0
1158 110 2 0.5564 0.7322369749834946 1.0630264636273112 -5.621828131005203 0 1 0
3386 853 1 -1.1128 2.315413938609474 7.757725542125632 -12.826431244152369 2 -1 0
2309 494 1 -1.1128 0.9177226002098975 7.622903215799859 -10.321798489004962 0 4 0
1697 290 1 -1.1128 13.266300560213939 7.415783801398612 -6.858747904603219 -1 1 0
1017 63 2 0.5564 9.957492626702578 1.1824405670354448 -1.0968601056843137 1 0 0
3388 853 2 0.5564 3.2496722152815973 7.615403008148733 -12.674302622810321 2 -1 0
2372 515 1 -1.1128 12.666263355232907 6.029059627830134 -2.7756218429364816 0 3 0
2579 584 1 -1.1128 2.820324693440667 -0.3253244193384133 -0.07229073158639468 2 2 0
2417 530 1 -1.1128 -1.643948761163083 4.863005184119896 -4.032971607778049 3 -1 0
3666 946 2 0.5564 9.91149986130406 2.459278457652865 -7.907311788885424 0 -2 0
4417 1196 2 0.5564 9.350080341682103 7.501452204646227 -12.43104104950205 -3 -4 0
1151 108 1 -1.1128 5.715831752620108 1.5835918318522078 -2.825398118913757 -1 2 0
3729 967 2 0.5564 13.983131412234494 0.5302159364905329 -9.259360889612015 -1 0 0
3480 884 2 0.5564 4.222619097053986 1.153409139412442 -11.386367092759127 -5 -1 0
2509 560 2 0.5564 9.260973384282757 7.57292524805976 -5.432814212284025 4 1 0
2508 560 2 0.5564 10.152819786011005 7.504090541232206 -4.211434897741584 4 1 0
1171 114 2 0.5564 11.944222324957646 2.3227284442108695 -5.7825937852305405 2 1 0
896 23 1 -1.1128 9.89791739852877 6.447032573420065 -2.6430673423422477 3 0 0
2934 702 2 0.5564 4.049646557234322 4.386657633969613 -2.4284698018623088 -4 1 0
3828 1000 2 0.5564 9.7818488505393 5.038300708196307 -12.348290851448347 2 -3 0
855 9 2 0.5564 5.180584869335408 6.99589214783673 -11.496074397516248 0 1 0
2102 425 1 -1.1128 8.661107606130868 0.7755062011547971 -3.829154815850686 3 -3 0
1219 130 2 0.5564 0.33146714561999563 -0.4124099535067177 -3.7613830958459897 4 -1 0
3610 927 2 0.5564 11.012540884506565 2.921599187265688 -2.205758160358241 -4 -2 0
1170 114 2 0.5564 12.134332116467531 2.623302813098197 -7.254127280397278 2 1 0
2790 654 2 0.5564 13.541498220543781 4.579036428058047 -6.810421505451175 0 2 0
2103 425 2 0.5564 9.256291700060258 0.4004455468060285 -4.478245673414874 3 -3 0
1420 197 2 0.5564 9.421349006406516 -0.4705929289994125 -9.68222993811655 7 1 0
1281 151 2 0.5564 1.9401687056218253 7.04864762820422 -3.8174503887938562 3 -3 0
845 6 1 -1.1128 8.370556608347405 4.5480213179237134 -1.3933532632081944 0 2 0
2101 424 2 0.5564 9.615661857868925 2.2945634013477796 -4.123745690344506 2 0 0
2099 424 1 -1.1128 10.373312524958028 2.867412915676241 -4.005230472523034 2 0 0
1016 63 1 -1.1128 9.70347614850668 0.26098811861951465 -1.1481836900455948 1 0 0
2646 606 2 0.5564 7.497035413068551 6.41654585893889 -1.0934218316189308 1 1 0
897 23 2 0.5564 10.828599926219015 6.227161708154434 -2.684594546665548 3 0 0
3608 927 1 -1.1128 11.077413671324878 2.6673776665251236 -1.285217501166919 -4 -2 0
1018 63 2 0.5564 9.079429323603502 0.22409596657847736 -1.8730538620167896 1 0 0
2100 424 2 0.5564 10.241688607244997 3.573420351878012 -4.638053853116212 2 0 0
2374 515 2 0.5564 12.925448553575848 5.362367737893208 -3.4116882266664086 0 3 0
2373 515 2 0.5564 12.505277486912794 5.540741907035198 -1.9682412773922153 0 3 0
2994 722 2 0.5564 13.876835334293268 2.0595498871748394 -1.291494054636818 -1 4 0
898 23 2 0.5564 9.853631406446741 7.190872038292914 -2.042254263266161 3 0 0
3199 790 2 0.5564 -0.9902570209486754 5.459286787233586 -5.7627301763673975 -5 -4 0
2419 530 2 0.5564 -1.7872948993741613 5.596360867855425 -3.4347463770522317 3 -1 0
3973 1048 2 0.5564 0.05577386084840855 7.481171466229694 -6.123648754364294 -2 -1 0
3632 935 1 -1.1128 6.005815782989752 2.6359877092669577 -0.4320813391117775 -3 -2 0
1941 371 2 0.5564 13.74051944993557 7.397336897897573 -2.2957488683163625 -2 7 0
3728 967 1 -1.1128 13.1276266808661 0.6793754815907141 -9.661973634447461 -1 0 0
3126 766 2 0.5564 4.434848572753352 7.062320864563968 -8.962408354339619 1 -1 0
1698 290 2 0.5564 12.778353432096457 7.4633673030572005 -6.036630884448098 -1 1 0
4251 1141 2 0.5564 10.9739387905885 -0.4415028476044842 -0.12602537962103705 0 7 0
2507 560 1 -1.1128 10.17437896186371 7.4652665747501485 -5.1676061400455735 4 1 0
4124 1099 1 -1.1128 12.418542186405114 4.51498284078379 -0.25638992041089814 0 4 0
1922 365 1 -1.1128 2.000486804704528 7.759961090308487 -0.8671185319643262 -3 4 0
1829 334 1 -1.1128 5.78245942223465 7.767197999753545 -9.650664071535122 -1 1 0
3127 766 2 0.5564 3.15072760992247 7.707682081228037 -8.486552872448573 1 -1 0
1261 144 2 0.5564 13.577620674590044 -0.5426718809349065 -4.576347370454381 2 3 0
3410 861 1 -1.1128 14.086494461881676 -0.6332278638769965 -2.844504030073943 -1 2 0
3085 752 2 0.5564 4.076875998771052 7.633714997670147 -5.355479785056225 2 0 0
3435 869 2 0.5564 13.938466085290365 7.38246057582521 -9.884414871242885 -1 0 0
3559 910 2 0.5564 2.801074671634771 5.225921110243514 7.279734910698174 -1 1 0
3557 910 1 -1.1128 2.7017479442080776 5.356526800324855 6.336701121574127 -1 1 0
3558 910 2 0.5564 3.048017911194887 4.554442199502958 5.9455560133821574 -1 1 0
4274 1149 1 -1.1128 5.828992371177315 0.9182552813826674 3.476909537514338 1 2 0
3579 917 2 0.5564 3.305764578564857 2.0968018743311547 5.430274974431959 0 -1 0
3262 811 2 0.5564 2.8772454545654162 -0.08091325173322347 4.591661890217188 1 2 0
3260 811 1 -1.1128 2.3342621265209558 0.4851991665892485 5.140223391469914 1 2 0
2151 441 2 0.5564 1.7198729508252955 1.264150548735318 3.4141632480231494 2 -1 0
3771 981 2 0.5564 3.149688862419133 5.6190614822783225 1.7996458679313596 5 -2 0
4276 1149 2 0.5564 6.342519296722718 1.3854917340189954 2.8179614160539055 1 2 0
2152 441 2 0.5564 0.5773724956153872 1.286872803588932 2.421148990152437 2 -1 0
2150 441 1 -1.1128 1.4599522789003532 1.6272696813978729 2.5675108274308855 2 -1 0
883 18 2 0.5564 3.781062275913902 6.23617740970354 5.345856719562945 -1 2 0
4351 1174 2 0.5564 -0.8545204149286347 -0.04446138531558748 1.5201083925755474 0 0 0
3261 811 2 0.5564 1.9064246092816484 -0.1130230963286798 5.752856580289415 1 2 0
1302 158 2 0.5564 1.5334190506019743 -0.2831181197863511 8.649188947620903 3 1 0
4167 1113 2 0.5564 13.380021058100553 5.612314066757884 10.41006662548825 2 6 0
1951 374 2 0.5564 12.292715121515508 4.742517490307815 14.780430495778267 0 0 0
3578 917 1 -1.1128 3.739488807810265 2.864360537680844 5.80306055233015 0 -1 0
4275 1149 2 0.5564 6.266804287964026 1.113789023837807 4.305355794624286 1 2 0
2963 712 1 -1.1128 11.200904784791172 -0.5547461851965102 16.78923256188238 -1 4 0
3770 981 1 -1.1128 3.8145511416360134 6.007513025945861 2.3682388801868886 5 -2 0
3580 917 2 0.5564 4.250576215151841 3.226396611615623 5.079215083807722 0 -1 0
3639 937 2 0.5564 4.813941139048513 4.430321466950901 3.233216692349044 3 2 0
1432 201 2 0.5564 13.601257274438384 0.346479556531836 12.46839605252662 -4 0 0
882 18 2 0.5564 4.149464561118157 6.736095234446909 3.965182668789025 -1 2 0
3556 909 2 0.5564 -0.4266677193675352 4.565377417557086 2.583148718449562 3 1 0
2430 534 2 0.5564 3.61722272221422 1.1584329510487552 0.6278837187048198 0 -3 0
3016 729 2 0.5564 4.167446553670568 1.4526895626333174 7.093764493309405 3 7 0
2429 534 1 -1.1128 3.7937326645089176 1.9493212421193382 1.137369683045146 0 -3 0
2431 534 2 0.5564 2.97274575942228 2.127447063200939 1.5961594298617847 0 -3 0
3554 909 1 -1.1128 0.21422272796849037 4.372282076448254 3.2674045066236257 3 1 0
3555 909 2 0.5564 0.5759182568469151 3.5201639871002635 3.023881884676536 3 1 0
4336 1169 2 0.5564 0.530571573685773 3.4555185487674445 5.555090980075374 1 0 0
2659 610 2 0.5564 13.295235522697183 1.180381449155497 14.533256660367964 0 5 0
3638 937 1 -1.1128 5.336644410350645 4.190899411351861 3.998521628202706 3 2 0
3490 887 2 0.5564 1.108795318528997 4.862384449209489 0.43220079069161604 3 4 0
2108 427 1 -1.1128 -1.3879649386808643 5.660629668128587 11.952798765538812 -1 -1 0
4215 1129 2 0.5564 -1.8306248223103476 1.6174486177079899 0.47856650391105665 3 2 0
4350 1174 2 0.5564 -1.353857004671649 0.7347147781503593 2.7182110459225464 0 0 0
4335 1169 2 0.5564 0.4166394735713842 3.1435183342745123 7.0321057768080175 1 0 0
3920 1031 1 -1.1128 0.7739650663754127 6.822680808167487 4.721512414359965 2 -2 0
1262 145 1 -1.1128 -1.203513317886318 4.095333699741428 9.721361147305712 6 1 0
3921 1031 2 0.5564 1.3263950962413396 6.42704523051402 5.395699287808188 2 -2 0
3634 935 2 0.5564 5.3352001868842205 2.2503001551972237 0.13161680630885805 -3 -2 0
3772 981 2 0.5564 4.584883014288997 6.100778417173464 1.8077713350723636 5 -2 0
3922 1031 2 0.5564 0.5124791019056808 6.089326836181641 4.164689854741585 2 -2 0
4334 1169 1 -1.1128 -0.08663332274465081 3.145698491155112 6.217889861691753 1 0 0
4349 1174 1 -1.1128 -1.0120634100385677 0.8469670685981581 1.8311871534513096 0 0 0
1303 158 2 0.5564 2.6352910706172157 0.046257995321500336 9.633719667267048 3 1 0
1470 214 2 0.5564 13.571491221471192 7.253544795821312 3.66789247126216 -2 -2 0
1222 131 2 0.5564 10.998485605919052 1.1749671720345807 17.057550950989025 -1 2 0
1684 285 2 0.5564 4.474546780024734 -0.5518383758394267 17.292829371234546 1 0 0
2213 462 1 -1.1128 -0.8288526313329829 4.751739985812161 0.9046706066530985 2 -1 0
2672 615 1 -1.1128 13.857394146394586 -0.4696550325102354 6.169509298239476 2 4 0
3488 887 1 -1.1128 1.968845273285531 5.230929259407482 0.23040323901521334 3 4 0
495 2 4 0 13.5083 6.381 20.3563331933874 0 0 0
4322 1165 1 -1.1128 7.639797935684306 5.926216321242806 4.254255505177497 5 -4 0
1304 159 1 -1.1128 8.591028128093996 6.274236103973394 1.9349388748557999 1 -1 0
3941 1038 1 -1.1128 6.340214667059944 0.3593258440812333 14.215632659584967 0 2 0
4321 1164 2 0.5564 9.737132179812859 3.342461276726923 4.384006621889406 -2 -5 0
4126 1099 2 0.5564 13.220115510115166 4.243052667833833 0.19056554595224645 0 4 0
4320 1164 2 0.5564 9.47621159382569 3.785905986817609 5.807795684635328 -2 -5 0
1305 159 2 0.5564 8.11531880439455 6.149102812160039 2.7560822059017354 1 -1 0
3137 770 1 -1.1128 7.417159345046448 1.3546083854793027 5.5266741397169215 3 -1 0
2674 615 2 0.5564 13.110252754041468 -0.6789886733357415 6.730040507036144 2 4 0
4133 1102 1 -1.1128 10.706044116176216 2.0979204045692867 2.814548621307216 3 2 0
2216 463 1 -1.1128 8.540655570180276 3.292916803781079 1.1985533084763285 -1 -1 0
2218 463 2 0.5564 8.550442498969531 4.198082154697284 1.5097008779666559 -1 -1 0
2217 463 2 0.5564 7.6598777170913825 3.170412564403701 0.8443526947545048 -1 -1 0
4135 1102 2 0.5564 10.231063477275287 2.5681316434370434 2.1293274880463917 3 2 0
3445 872 2 0.5564 8.167141554781717 0.13681303013490226 9.256365001574364 -1 -1 0
3138 770 2 0.5564 7.823095877816162 2.1909082444032206 5.2985259955497055 3 -1 0
4134 1102 2 0.5564 11.546160941813106 1.8743130089368976 2.4139980021973795 3 2 0
1660 277 2 0.5564 10.716768237976545 2.7097339588584 8.40440657020462 0 -1 0
1475 216 1 -1.1128 -1.4164444236502343 7.710588450276421 0.8243489409438691 2 -1 0
4319 1164 1 -1.1128 9.105304173173165 3.81513489030667 4.925860667505671 -2 -5 0
4323 1165 2 0.5564 8.137265770452997 5.186208437509276 4.602317564934239 5 -4 0
3640 937 2 0.5564 6.089740418286356 4.780987410601563 3.968924880282509 3 2 0
4252 1141 2 0.5564 11.189292344103485 -0.6986288282650677 1.3502570537264629 0 7 0
2235 469 2 0.5564 10.204026972903844 0.2976545987408128 2.8945617066137297 1 -1 0
1306 159 2 0.5564 7.9378447432377754 6.62670023101507 1.3304944684512334 1 -1 0
4324 1165 2 0.5564 8.01488903521693 6.692729423302088 4.687841152089546 5 -4 0
4125 1099 2 0.5564 12.026404063773908 5.16399027885283 0.32777845968268327 0 4 0
2106 426 2 0.5564 12.451447402402678 6.296586464188352 6.635492772207652 1 -4 0
3381 851 2 0.5564 8.842864129580656 7.502316861419713 6.750516027320791 0 2 0
3986 1053 1 -1.1128 13.318093945274455 1.5255163625465853 2.030504894841585 1 0 0
3139 770 2 0.5564 7.347322683003232 1.3742059478389435 6.481122259372728 3 -1 0
2452 541 2 0.5564 -1.0052802739861573 1.2149036855129969 6.8592796648686605 -5 2 0
2604 592 2 0.5564 12.00492593410146 6.970819640392443 10.505269028918482 -1 -1 0
3981 1051 2 0.5564 13.616327956199871 5.11385555813677 7.887417074160426 0 1 0
494 2 4 0 13.5083 4.963 20.3563331933874 0 0 0
2603 592 1 -1.1128 11.240414237106913 6.956399102325921 11.08107015755181 -1 -1 0
3824 999 1 -1.1128 8.5323216418955 7.497258805654957 16.432841098669712 3 1 0
3982 1051 2 0.5564 13.69508983850988 3.874055867586131 7.022205005603009 0 1 0
2666 613 1 -1.1128 7.401090161613307 -0.033349645844280504 0.10253513136820794 2 0 0
4063 1078 2 0.5564 12.871043795261478 3.1355043144529793 16.755648716837698 0 -1 0
3474 882 2 0.5564 1.936459631159842 3.224493539190268 8.698623013401916 2 0 0
3475 882 2 0.5564 1.2390197289556635 1.9129611102319661 8.990789485721955 2 0 0
3473 882 1 -1.1128 1.0679824997716179 2.8281058738904488 8.768325931873578 2 0 0
1039 70 2 0.5564 4.297636394204887 0.894689899544035 11.154248770012856 2 -1 0
1263 145 2 0.5564 -0.30224437014976835 3.8072450010361623 9.576613073311782 6 1 0
2691 621 2 0.5564 12.78690327134131 3.3851014511467765 11.766302434527251 4 -1 0
1037 70 1 -1.1128 4.285907749928138 0.17564721973594222 10.5225254341552 2 -1 0
4129 1100 2 0.5564 3.1757259190257905 5.454008762525394 9.755234157882006 -2 0 0
4127 1100 1 -1.1128 3.152226114587918 4.858533672429694 9.006173421704478 -2 0 0
4128 1100 2 0.5564 4.066017598905336 4.78205707504525 8.73163105184661 -2 0 0
3605 926 1 -1.1128 5.737478450907161 4.522559554629075 8.240262742785143 2 2 0
3606 926 2 0.5564 5.424826631340177 3.847435901508726 7.638025548927543 2 2 0
3496 889 2 0.5564 9.69472250179836 0.2225354825330521 13.096191353777105 3 -3 0
1038 70 2 0.5564 4.603345986686189 0.5662926870211018 9.708359893376088 2 -1 0
3154 775 2 0.5564 4.99088341492617 6.572368480802177 13.333746009344766 -3 -2 0
3382 851 2 0.5564 10.172435078185972 6.963175244731085 6.267334220549861 0 2 0
1356 176 2 0.5564 -1.0726449641443723 1.106699834786964 12.005968791482966 -5 3 0
3848 1007 1 -1.1128 2.830780629125816 6.63145868695645 11.25590570984614 1 1 0
3894 1022 2 0.5564 4.457773458896159 -0.25754875221293605 3.1948496009861396 9 1 0
3010 727 2 0.5564 10.495401468107316 6.491794403197489 2.0220965799785358 1 2 0
876 16 2 0.5564 13.23314145010527 0.15871153096708937 16.833973562052577 2 0 0
1431 201 2 0.5564 14.10917210968169 -0.4841251403586119 11.309074919968623 -4 0 0
2554 575 2 0.5564 0.7431358387292907 4.030681097292642 13.985762415116502 5 1 0
3607 926 2 0.5564 6.176543257775773 4.036708893048791 8.938408023372785 2 2 0
3614 929 1 -1.1128 1.2382798195832148 4.546815023929046 12.27726964638463 3 -1 0
3615 929 2 0.5564 0.36515184819473423 4.861555707716966 12.04313121531847 3 -1 0
3616 929 2 0.5564 1.811435164062185 5.299789338046288 12.13319648146733 3 -1 0
1917 363 2 0.5564 1.1148594661519506 2.289151866199987 11.688873556755945 -1 -3 0
1918 363 2 0.5564 1.0759557603171714 0.8806981844905896 11.135115511272648 -1 -3 0
1700 291 1 -1.1128 2.503390554095173 1.128454509215736 13.836291391808077 3 3 0
1701 291 2 0.5564 1.682709467328374 1.3121018683944965 13.379136046812246 3 3 0