LAMMPS data file via write_data, version 2 Aug 2023, timestep = 5750000, units = real

5032 atoms
4 atom types
2800 bonds
1 bond types
1400 angles
1 angle types
0 impropers
1 improper types

-1.8420299999999998 30.08661 xlo xhi
-0.709 33.323 ylo yhi
-150 150 zlo zhi

Masses

1 15.9994
2 1.00794
3 12.0107
4 12.0107

Pair Coeffs # lj/cut/tip4p/long

1 0.1852 3.1589
2 0 0
3 0.0859 3.3997
4 0.0859 3.3997

Bond Coeffs # harmonic

1 5000 0.9572

Angle Coeffs # harmonic

1 500 104.52

Atoms # full

1 1 3 0 0 0 -19.086524130372066 0 0 0
2 1 3 0 -1.22802 0.709 -19.086524130372066 0 0 0
3 1 3 0 -1.22802 2.127 -19.086524130372066 0 0 0
4 1 3 0 0 2.836 -19.086524130372066 0 0 0
5 1 3 0 2.45605 0 -19.086524130372066 0 0 0
6 1 3 0 1.22802 0.709 -19.086524130372066 0 0 0
7 1 3 0 1.22802 2.127 -19.086524130372066 0 0 0
8 1 3 0 2.45605 2.836 -19.086524130372066 0 0 0
9 1 3 0 4.9121 0 -19.086524130372066 0 0 0
10 1 3 0 3.68407 0.709 -19.086524130372066 0 0 0
11 1 3 0 3.68407 2.127 -19.086524130372066 0 0 0
12 1 3 0 4.9121 2.836 -19.086524130372066 0 0 0
14 1 3 0 6.14012 0.709 -19.086524130372066 0 0 0
15 1 3 0 6.14012 2.127 -19.086524130372066 0 0 0
53 1 3 0 0 4.254 -19.086524130372066 0 0 0
54 1 3 0 -1.22802 4.963 -19.086524130372066 0 0 0
55 1 3 0 -1.22802 6.381 -19.086524130372066 0 0 0
56 1 3 0 0 7.09 -19.086524130372066 0 0 0
57 1 3 0 2.45605 4.254 -19.086524130372066 0 0 0
58 1 3 0 1.22802 4.963 -19.086524130372066 0 0 0
59 1 3 0 1.22802 6.381 -19.086524130372066 0 0 0
60 1 3 0 2.45605 7.09 -19.086524130372066 0 0 0
61 1 3 0 4.9121 4.254 -19.086524130372066 0 0 0
62 1 3 0 3.68407 4.963 -19.086524130372066 0 0 0
63 1 3 0 3.68407 6.381 -19.086524130372066 0 0 0
64 1 3 0 4.9121 7.09 -19.086524130372066 0 0 0
66 1 3 0 6.14012 4.963 -19.086524130372066 0 0 0
67 1 3 0 6.14012 6.381 -19.086524130372066 0 0 0
4901 1358 1 -1.1128 3.275511722090995 1.9989433465109012 -15.476313651156753 -2 0 0
906 26 2 0.5564 0.7198026024652853 -0.1060183959217563 -15.730731466078499 1 1 0
1908 360 2 0.5564 3.132307697039672 4.982678356483878 -16.746075777485757 3 -2 0
5002 1391 2 0.5564 -1.7740295474601213 2.1350182272349265 -3.522581366488911 1 4 0
907 26 2 0.5564 0.22266944223460283 1.3159738996835075 -15.881371497436673 1 1 0
905 26 1 -1.1128 1.0231758856067306 0.7913249127409566 -15.868473077096196 1 1 0
4903 1358 2 0.5564 2.39732727200597 1.6537852551694232 -15.637216857286198 -2 0 0
1629 267 2 0.5564 -0.6406615267601734 5.47735031638925 -6.60640189886496 5 -2 0
4953 1375 2 0.5564 -1.1319752446197386 5.981179238561093 -15.878386255664365 -1 -2 0
4952 1375 1 -1.1128 -0.7867051469466474 5.130102196841871 -15.608777309211952 -1 -2 0
4427 1200 1 -1.1128 10.676000924128594 -0.30562178611950624 -6.952328220184395 0 1 0
1907 360 1 -1.1128 3.5758889798110034 4.909828916852252 -15.900995214219073 3 -2 0
1909 360 2 0.5564 3.4567931378709913 3.9950707899083806 -15.645513585473076 3 -2 0
4902 1358 2 0.5564 3.860639205216924 1.2673292776863019 -15.67277835148291 -2 0 0
3746 973 1 -1.1128 5.783815126459552 -0.10318219181777118 -15.673188329399768 2 2 0
1680 284 2 0.5564 1.2734005533915613 7.526684650499139 -13.172907156781077 -1 -1 0
4963 1378 2 0.5564 10.411971301719555 1.4478549692160085 -1.0459413717248043 0 -3 0
3947 1040 1 -1.1128 6.305175021044842 4.9181531122666 -15.461257100088492 4 -1 0
13 1 3 0 7.36814 0 -19.086524130372066 0 0 0
16 1 3 0 7.36814 2.836 -19.086524130372066 0 0 0
17 1 3 0 9.82419 0 -19.086524130372066 0 0 0
18 1 3 0 8.59617 0.709 -19.086524130372066 0 0 0
19 1 3 0 8.59617 2.127 -19.086524130372066 0 0 0
20 1 3 0 9.82419 2.836 -19.086524130372066 0 0 0
21 1 3 0 12.2802 0 -19.086524130372066 0 0 0
22 1 3 0 11.0522 0.709 -19.086524130372066 0 0 0
23 1 3 0 11.0522 2.127 -19.086524130372066 0 0 0
24 1 3 0 12.2802 2.836 -19.086524130372066 0 0 0
26 1 3 0 13.5083 0.709 -19.086524130372066 0 0 0
27 1 3 0 13.5083 2.127 -19.086524130372066 0 0 0
65 1 3 0 7.36814 4.254 -19.086524130372066 0 0 0
68 1 3 0 7.36814 7.09 -19.086524130372066 0 0 0
69 1 3 0 9.82419 4.254 -19.086524130372066 0 0 0
70 1 3 0 8.59617 4.963 -19.086524130372066 0 0 0
71 1 3 0 8.59617 6.381 -19.086524130372066 0 0 0
72 1 3 0 9.82419 7.09 -19.086524130372066 0 0 0
73 1 3 0 12.2802 4.254 -19.086524130372066 0 0 0
74 1 3 0 11.0522 4.963 -19.086524130372066 0 0 0
75 1 3 0 11.0522 6.381 -19.086524130372066 0 0 0
76 1 3 0 12.2802 7.09 -19.086524130372066 0 0 0
78 1 3 0 13.5083 4.963 -19.086524130372066 0 0 0
79 1 3 0 13.5083 6.381 -19.086524130372066 0 0 0
3949 1040 2 0.5564 6.707812494211943 4.0820333648483 -15.695821050585812 4 -1 0
1919 364 1 -1.1128 7.218847547414132 2.2536002338059693 -15.839747407601784 1 -1 0
1921 364 2 0.5564 8.128716670652878 2.149737279338311 -16.11828488666802 1 -1 0
2596 589 2 0.5564 7.516909253589898 6.671205061316478 -16.217640108783197 0 -2 0
4416 1196 2 0.5564 13.640035423517928 5.252709732540816 -15.878931380082498 0 -1 0
1654 275 2 0.5564 10.773708753562412 2.178536609527722 -15.505262414747259 -4 4 0
2371 514 2 0.5564 13.770101247595683 -0.6027330749712599 -15.799151601165512 1 4 0
2135 436 1 -1.1128 3.5709942799511882 6.9153868473040125 -11.329352017659224 3 -2 0
3467 880 1 -1.1128 -1.2902427080725618 0.16582695660993144 -12.001696125540281 0 1 0
2995 722 2 0.5564 -0.9867258333853326 3.3197875647733746 -15.496192123055192 4 -6 0
4415 1196 1 -1.1128 12.972890416891863 5.9251800112225705 -16.016532270876446 0 -1 0
1920 364 2 0.5564 6.776663762983969 1.4704461111760332 -16.16743060652936 1 -1 0
1652 275 1 -1.1128 9.930569107544278 2.625399068178777 -15.430027713349698 -4 4 0
1008 60 2 0.5564 -0.719636059805709 -0.31709673988241616 -9.231138849408646 -3 -2 0
2595 589 2 0.5564 9.026274689157566 6.779120294007123 -16.172190207538296 0 -2 0
3998 1057 1 -1.1128 12.37914088514331 6.930365184555268 -7.339640168319803 -1 0 0
2863 678 2 0.5564 -0.2882375329373367 1.8235330143519408 -7.953213549574057 1 2 0
4954 1375 2 0.5564 -0.0726384620845751 5.340497296506605 -15.00704972277178 -1 -2 0
1466 213 1 -1.1128 1.6742249600394874 7.099907704052014 -8.439085113582925 2 1 0
1706 293 1 -1.1128 3.293624087169552 3.8643093883452933 -0.44759564990759276 0 5 0
4794 1322 2 0.5564 1.0006466017578397 5.765036613735178 -9.657221556455347 -1 -2 0
4729 1300 2 0.5564 7.196795204389694 0.3984974922729499 -12.828245266480588 -2 4 0
4727 1300 1 -1.1128 6.538250516099195 -0.22305954031171132 -12.518054207886689 -2 4 0
1824 332 2 0.5564 6.518698087167295 2.0806891628876922 -7.359850772158113 -1 0 0
1690 287 2 0.5564 4.209682197825658 1.7992150357853796 -12.850869720172287 3 2 0
1688 287 1 -1.1128 3.9494400428441963 1.215489218515718 -12.138289194914751 3 2 0
4501 1224 2 0.5564 1.1741819880699749 1.585548892478045 -0.9443979372853855 0 0 0
1825 332 2 0.5564 5.526124139961737 1.4873263191754296 -8.336894971262392 -1 0 0
3904 1025 2 0.5564 -1.7765533027681466 7.341592307672477 -14.317891610431687 -1 -1 0
1206 126 2 0.5564 -0.8691935567538368 7.581310996635036 -5.561345597486156 2 4 0
1689 287 2 0.5564 3.1263671075187065 0.8270233698099237 -12.434732709810666 3 2 0
2445 539 2 0.5564 6.497475168182773 -0.22066820621088132 -6.155792622005577 1 5 0
1162 111 2 0.5564 5.4925672559951995 4.665526003807699 -10.869750086075424 0 0 0
4793 1322 1 -1.1128 0.6720138111521222 5.032196182797715 -10.177970095787273 -1 -2 0
3168 780 2 0.5564 2.6392036066589966 5.51926098363038 -14.317873694749041 3 2 0
1262 145 1 -1.1128 7.853119168367396 6.648424654455526 -11.693019126938584 -1 -1 0
3038 737 1 -1.1128 5.888346408073674 2.6730342325972765 -13.27810207379309 -1 2 0
1160 111 1 -1.1128 6.417572373171491 4.6909534362253735 -10.624901898113395 0 0 0
1858 343 2 0.5564 4.150368303906729 0.6858825474515126 -10.329380400756978 0 3 0
1856 343 1 -1.1128 4.31346383839928 0.3352080869263846 -9.4537888425823 0 3 0
4161 1111 2 0.5564 2.6305153742941068 2.866717760205797 -9.057771956931052 3 -1 0
3039 737 2 0.5564 6.271759745945643 2.5817760862848442 -14.150397100991595 -1 2 0
1161 111 2 0.5564 6.73203181359654 5.5299044602282805 -10.961818215120989 0 0 0
4728 1300 2 0.5564 5.702711633755222 0.1575812254821256 -12.788646271505108 -2 4 0
3261 811 2 0.5564 1.5889707363881969 0.4674270591902383 -14.043184362839051 2 -4 0
4160 1111 1 -1.1128 2.85654572538326 3.3760549180557105 -9.836051929478034 3 -1 0
4162 1111 2 0.5564 3.0887614586675243 2.719925320239436 -10.49316600264673 3 -1 0
3040 737 2 0.5564 6.574344070376516 3.0901041797916533 -12.75686181374934 -1 2 0
4795 1322 2 0.5564 1.4336503287657234 4.466066126557694 -10.303038008261098 -1 -2 0
2211 461 2 0.5564 9.045051713839708 -0.6384432379059053 -4.051928027887179 4 1 0
3026 733 1 -1.1128 5.172289466095155 6.831501187909943 -13.646360750642812 3 3 0
1628 267 1 -1.1128 -0.5698519888743149 6.403059320116169 -6.839381479915338 5 -2 0
2049 407 2 0.5564 4.207137152381921 6.527707688963778 -9.772621969620536 -3 -2 0
2625 599 2 0.5564 0.6205280907448116 4.817572096962992 -0.4501834954470884 3 -1 0
4828 1333 2 0.5564 13.715360637112497 4.464612769927779 -0.41226445379984156 1 -1 0
2136 436 2 0.5564 4.1430625326906485 6.755717375488698 -12.080005919386771 3 -2 0
3028 733 2 0.5564 5.621687387183374 7.668001511830776 -13.766954335434864 3 3 0
2048 407 1 -1.1128 4.337324253911055 6.424151917884778 -8.829985315198527 -3 -2 0
4179 1117 2 0.5564 -1.154420869695972 4.560441990947213 -9.740397040468578 0 2 0
3027 733 2 0.5564 5.566296908571097 6.251300808928097 -14.297789098726707 3 3 0
4172 1115 1 -1.1128 8.502152516974261 -0.04661844752928139 -10.359083658921863 -3 -1 0
2446 539 2 0.5564 5.247013066277227 -0.30233042883466743 -5.306337524064163 1 5 0
3167 780 1 -1.1128 1.892054917610035 5.5802388826598825 -13.722656553247083 3 2 0
3169 780 2 0.5564 2.232630144371394 5.283350990251438 -12.878797694252308 3 2 0
3260 811 1 -1.1128 1.4881004790176338 0.29667002345623017 -13.106754170963793 2 -4 0
4626 1266 2 0.5564 8.852694018666096 1.645818386927105 -3.775580024587891 1 1 0
3262 811 2 0.5564 0.597652098314657 0.5840890230277337 -12.904952273900093 2 -4 0
1263 145 2 0.5564 8.356028010673377 7.062735723215004 -10.991831051412332 -1 -1 0
2862 678 2 0.5564 -1.5908664003912505 2.29844841924207 -8.5610874646407 1 2 0
3374 849 1 -1.1128 2.0257118568606134 7.413380715213092 -0.21265358593928255 -1 0 0
3609 927 2 0.5564 5.931425487595768 -0.6694203216883724 -0.41156702588557703 1 0 0
2444 539 1 -1.1128 6.194019424612242 -0.17531235765576633 -5.249099751776978 1 5 0
4625 1266 1 -1.1128 9.396016353460316 1.4355212933381416 -4.5350595371035896 1 1 0
2845 672 2 0.5564 7.3804292332727455 3.388727641618954 -9.890232092198515 -3 1 0
2844 672 2 0.5564 8.228517169220037 2.7685904821058602 -8.800242881480353 -3 1 0
2843 672 1 -1.1128 7.998020734366831 2.676397500277122 -9.72469171254824 -3 1 0
2705 626 1 -1.1128 9.372635907945172 0.2640340797815921 -13.83857482368899 3 -2 0
2706 626 2 0.5564 9.27483992408091 1.0782211055032447 -14.332303831731098 3 -2 0
3948 1040 2 0.5564 5.37775735474651 4.804626726049032 -15.669206923324571 4 -1 0
3722 965 1 -1.1128 11.014641865388107 0.3116694627353309 -11.737430297522634 3 1 0
3610 927 2 0.5564 6.8449066397794 0.008293417581687463 -1.410642737109876 1 0 0
4000 1057 2 0.5564 12.079378861907038 7.791383875629428 -7.631225967133588 -1 0 0
3999 1057 2 0.5564 12.759083926632687 6.530857678549968 -8.122117096383729 -1 0 0
2128 433 2 0.5564 13.80695947764544 4.208650415232957 -8.93736509824272 2 4 0
1467 213 2 0.5564 2.5700601411904764 6.812649758962513 -8.615703073696183 2 1 0
2707 626 2 0.5564 9.131996055702249 -0.4235478522273309 -14.459506682160118 3 -2 0
4499 1224 1 -1.1128 0.9290947633049301 1.35202034463916 -0.049059459498031886 0 0 0
2244 472 2 0.5564 6.695064466852754 5.108576245340041 -6.3048110482714295 2 0 0
2794 655 2 0.5564 11.291360563999262 2.4788712241192807 -8.488808327212789 2 1 0
4173 1115 2 0.5564 8.265519460144345 0.8285071854322509 -10.05184979523815 -3 -1 0
1588 253 2 0.5564 11.30688022295356 5.46032297061116 -15.940441681681637 1 4 0
1586 253 1 -1.1128 10.362595580744529 5.340416781880374 -15.839542397820473 1 4 0
1587 253 2 0.5564 10.202017593911332 5.475127952224139 -14.905572668005489 1 4 0
3592 921 2 0.5564 12.098829524750403 -0.03417531116588416 -4.368368595284496 -4 2 0
1653 275 2 0.5564 10.151967053979886 3.556638098629804 -15.42673367415184 -4 4 0
1045 72 2 0.5564 5.780300138099222 5.753142876693984 -0.9974808581490467 -2 -2 0
3723 965 2 0.5564 10.577385164459596 -0.1288355409790157 -11.008736974331768 3 1 0
2275 482 2 0.5564 9.891243494985249 2.602679846507343 -10.102712343068166 0 3 0
1857 343 2 0.5564 3.4418586174416523 0.15794644913703426 -9.100074231526753 0 3 0
4651 1274 2 0.5564 9.114967032836589 5.82577750166004 -12.862250228894613 4 2 0
3223 798 2 0.5564 13.215259986135555 2.334754214132084 -12.660651365996394 1 2 0
4857 1343 2 0.5564 11.359164378156352 4.792491860962314 -12.496824417441287 2 2 0
4856 1343 1 -1.1128 12.097302880758262 4.526033988411696 -11.94874813219864 2 2 0
3468 880 2 0.5564 -0.7222652968932224 -0.21850544556452461 -11.333923143567441 0 1 0
3529 900 2 0.5564 10.488330551693544 3.6037308773993137 -2.2508593465243343 1 2 0
4858 1343 2 0.5564 11.72790389660124 3.8809011995162717 -11.345769529854733 2 2 0
2273 482 1 -1.1128 10.843096593040316 2.6388232673968126 -10.197075557025734 0 3 0
2274 482 2 0.5564 11.083629724351244 1.7763519162756884 -10.535487551818742 0 3 0
4429 1200 2 0.5564 10.928976703427063 0.5688545270467696 -7.248184006580133 0 1 0
1296 156 2 0.5564 13.44051449710169 2.4470939120225412 -7.51368816470672 -1 -1 0
3650 941 1 -1.1128 12.290035250808042 1.6225446515999316 -4.515812201405756 0 5 0
2594 589 1 -1.1128 8.226712684659399 7.289824026014955 -16.04523672794093 0 -2 0
3527 900 1 -1.1128 9.83231295948264 3.073921424010101 -1.7978957826650779 1 2 0
4174 1115 2 0.5564 7.934392598666544 -0.1973040704636143 -11.114844643085796 -3 -1 0
2248 473 2 0.5564 8.67515939388314 -0.4241502403779508 -7.094663480106324 0 1 0
4962 1378 2 0.5564 10.264829418587986 -0.05838724226742043 -1.0074664930096602 0 -3 0
3430 867 2 0.5564 13.87630331585731 4.819877181780174 -12.358285720544044 2 4 0
2415 529 2 0.5564 -0.44962650965885426 3.208923160047994 -5.3910620040803074 2 -1 0
4961 1378 1 -1.1128 10.858106564324354 0.6507826585059123 -0.7598069339338832 0 -3 0
3724 965 2 0.5564 10.370447082025551 0.3015483288448974 -12.445344524955916 3 1 0
3084 752 2 0.5564 1.3042343837791368 2.643298304675286 -7.029467957770055 2 -3 0
3083 752 1 -1.1128 1.5581287828213022 2.0614209781190804 -7.745843266362937 2 -3 0
3085 752 2 0.5564 2.072356989714317 1.3725929773448047 -7.324750142184966 2 -3 0
3297 823 2 0.5564 11.385030370991613 5.437533893664172 -2.84812485174884 6 -3 0
1823 332 1 -1.1128 5.584084893131552 2.0492569438837953 -7.564167445069677 -1 0 0
3413 862 1 -1.1128 8.76375719552964 7.4256334506091335 -2.5281077535151146 0 2 0
2414 529 1 -1.1128 0.21400047279170606 3.650565889900504 -5.920950443297831 2 -1 0
2126 433 1 -1.1128 13.677564113557652 5.135765053770834 -9.137233002139041 2 4 0
3748 973 2 0.5564 6.6045906949287145 -0.5951786322850933 -15.650853043484759 2 2 0
4115 1096 1 -1.1128 6.955340362367263 1.635839703632226 -2.9744837241984508 -1 0 0
2104 425 2 0.5564 13.041658628266868 4.318769270783843 -4.269718233888339 5 1 0
2162 445 1 -1.1128 3.5447072910195208 0.6808310588877663 -6.148872790076033 0 1 0
2163 445 2 0.5564 4.249690635595347 1.1154776679500455 -6.628785232033192 0 1 0
3651 941 2 0.5564 12.337321634468921 2.5785723705189025 -4.513187989054165 0 5 0
1708 293 2 0.5564 3.5964093462860047 3.0540012790879603 -0.857420507323774 0 5 0
3192 788 2 0.5564 3.9023483456657577 0.7408334803143749 -0.853889202209811 2 1 0
3193 788 2 0.5564 4.981938458228742 1.1802235375367596 -1.8199726561941738 2 1 0
1043 72 1 -1.1128 6.076930814922481 6.231160890602773 -1.7719106204864987 -2 -2 0
3499 890 2 0.5564 2.4407598378124455 1.639813738462659 -2.405611975155954 1 0 0
3498 890 2 0.5564 1.3865872093465035 1.0458460848481557 -3.3154571426692154 1 0 0
2164 445 2 0.5564 3.4587614848514954 -0.17408028876475926 -6.570739857969667 0 1 0
3497 890 1 -1.1128 1.5919156791613571 1.8293316960009216 -2.8053363978624692 1 0 0
2308 493 2 0.5564 0.7739470712007501 5.542887804242251 -2.969899058226996 3 -1 0
2626 599 2 0.5564 1.3038281292309164 6.022574833792076 -1.060890800928237 3 -1 0
1707 293 2 0.5564 2.6253745779091053 4.200223257194775 -1.044955855159455 0 5 0
2085 419 2 0.5564 11.893736032013646 6.892585772936344 -10.87994357038492 1 2 0
4649 1274 1 -1.1128 10.008650878040923 5.792681788081184 -13.20352756347141 4 2 0
2306 493 1 -1.1128 0.8859818495001126 5.522940729094592 -3.9203104977430456 3 -1 0
4555 1242 2 0.5564 2.726405637884976 3.372290707808628 -3.8948758137158572 6 -4 0
4554 1242 2 0.5564 3.702774553730511 4.0314909897797655 -4.845693486822171 6 -4 0
2927 700 1 -1.1128 4.992358740115515 4.612956073077537 -6.596112253687568 4 -1 0
2929 700 2 0.5564 4.663187080120216 5.120878397232349 -7.337659943863044 4 -1 0
2307 493 2 0.5564 1.8040146604180483 5.284315179110249 -4.04878538871481 3 -1 0
3221 798 1 -1.1128 13.88291008306513 1.6875174093510568 -12.887715909726907 1 2 0
2928 700 2 0.5564 4.9874104737487785 3.706892433378433 -6.904744916285564 4 -1 0
2004 392 2 0.5564 5.250781358040187 4.291554663799144 -3.733218417757542 -4 -3 0
4553 1242 1 -1.1128 3.268505319193095 4.153949072737138 -4.001509699099544 6 -4 0
2416 529 2 0.5564 0.5096135273608385 4.380047222182844 -5.376247051392384 2 -1 0
2005 392 2 0.5564 6.5933333686295965 4.570567030323623 -4.374782917317124 -4 -3 0
1939 370 2 0.5564 13.913917177862848 1.2648499142426912 -0.341986801466446 -2 1 0
3191 788 1 -1.1128 4.152999376211453 1.4610692304030564 -1.4323933383227965 2 1 0
4117 1096 2 0.5564 6.678217909913423 2.517149235673988 -3.2249489361681274 -1 0 0
2003 392 1 -1.1128 6.192193978545729 4.188184903079954 -3.594330958716678 -4 -3 0
3415 862 2 0.5564 8.037223473642996 7.238608065244884 -1.9336305706297863 0 2 0
1938 370 2 0.5564 12.745934850334596 1.0760963324028041 -1.286488704896471 -2 1 0
2243 472 1 -1.1128 7.456926290789631 5.4015680032144955 -5.804857843170156 2 0 0
2084 419 1 -1.1128 11.479933483328727 7.755618132049448 -10.866726264839446 1 2 0
1937 370 1 -1.1128 13.563288896840163 1.5630194470688619 -1.181267386317051 -2 1 0
2137 436 2 0.5564 2.7348310412629724 7.175483437864755 -11.715892864939345 3 -2 0
3298 823 2 0.5564 10.225582469818958 6.190264647618119 -2.2308947917463717 6 -3 0
2246 473 1 -1.1128 7.823848489721745 -0.41442800805885155 -7.532166193791505 0 1 0
4428 1200 2 0.5564 11.11019810763857 -0.40736755396603924 -6.105360028393016 0 1 0
2993 722 1 -1.1128 -1.516185834104795 2.522783534268363 -15.469946160764268 4 -6 0
1117 96 2 0.5564 8.069544536131268 3.4590884736590843 -6.406428692074841 -4 -2 0
4417 1196 2 0.5564 13.359270065932169 6.723686447622959 -15.656904390984396 0 -1 0
2792 655 1 -1.1128 11.528941945176038 2.356534246139101 -7.569663461811712 2 1 0
1115 96 1 -1.1128 8.246968343079121 2.6097376417072637 -6.81060090052375 -4 -2 0
2793 655 2 0.5564 11.04230245365009 3.0363050354725916 -7.103479877690887 2 1 0
1116 96 2 0.5564 8.45581326330433 2.033162996539092 -6.075631365222721 -4 -2 0
2624 599 1 -1.1128 0.9867155531136873 5.144436766092916 -1.271947506317953 3 -1 0
2861 678 1 -1.1128 -1.1341307291742522 1.508556070617408 -8.27178670293792 1 2 0
1408 193 2 0.5564 4.499432142331682 7.4085633830671345 -2.074966535977211 0 3 0
3528 900 2 0.5564 9.952696605841707 3.283190226242851 -0.8716410908894037 1 2 0
2245 472 2 0.5564 7.398072965610413 6.356896675882234 -5.815556681927124 2 0 0
1264 145 2 0.5564 7.361617854699021 7.36624933781662 -12.092251596679883 -1 -1 0
2730 634 2 0.5564 10.940965875403672 5.823130064638688 -6.7899903286340715 4 6 0
2102 425 1 -1.1128 12.112524309470311 4.419201052802089 -4.062702134993032 5 1 0
4116 1096 2 0.5564 6.814861348780553 1.1076812003930177 -3.7603252481947043 -1 0 0
2103 425 2 0.5564 11.750681597291754 4.8971320751633245 -4.808951058561795 5 1 0
2729 634 1 -1.1128 10.545056555138183 5.057227168758757 -6.374198064623484 4 6 0
3652 941 2 0.5564 13.134328729947157 1.3414714274005453 -4.868514554115279 0 5 0
3296 823 1 -1.1128 11.117067655683172 5.892498155556855 -2.049727876001635 6 -3 0
2731 634 2 0.5564 9.61101010175742 5.262416505729454 -6.333136476012983 4 6 0
4650 1274 2 0.5564 10.422518461713048 6.588760349465344 -12.87005076565632 4 2 0
1630 267 2 0.5564 0.04358244855176325 6.419400199787198 -7.573998833963187 5 -2 0
1044 72 2 0.5564 6.1222329102006405 5.567899572904015 -2.4605814572033333 -2 -2 0
2050 407 2 0.5564 5.0018178906532365 7.075860256721214 -8.60647075095423 -3 -2 0
4627 1266 2 0.5564 10.276094114398363 1.7178624183437887 -4.286105724721007 1 1 0
3925 1032 2 0.5564 9.644883513478716 7.749024159262491 -0.965022860945985 -2 1 0
4080 1084 2 0.5564 -1.5000586867041674 -0.5701929864994 -13.67403863894037 -2 -1 0
1874 349 1 -1.1128 1.5506524215883062 6.181882729259472 7.316753027848697 -1 -1 0
1876 349 2 0.5564 1.5905731195412962 5.3450543441139535 7.779739392329361 -1 -1 0
839 4 1 -1.1128 -0.8029847218965357 6.505578661542449 5.7854424133954945 -1 1 0
2664 612 2 0.5564 13.347664271640326 -0.4043337340888303 8.803094226357999 3 2 0
1539 237 2 0.5564 -0.19203578173760688 2.3390838155965157 3.6339514043215853 -1 -2 0
1540 237 2 0.5564 0.7536443294197155 2.5839987979166543 2.477404973519069 -1 -2 0
1538 237 1 -1.1128 -0.15041914206761794 2.3415165674207907 2.6776593743434147 -1 -2 0
1318 163 2 0.5564 -1.2059314867354722 0.9550738307190025 2.769676555286038 2 0 0
1875 349 2 0.5564 1.685451670639772 6.8400463511212735 7.998573922276565 -1 -1 0
3055 742 2 0.5564 0.00999767165130425 3.916605431451207 1.4299679290757517 3 0 0
2852 675 1 -1.1128 -0.4749412068610339 2.160186872745705 5.419749643922819 4 1 0
2859 677 2 0.5564 12.009085998335472 1.7706413931049423 9.476678085816651 0 3 0
3126 766 2 0.5564 0.36291934744047655 6.561116938003275 2.385155446252542 2 6 0
4371 1181 2 0.5564 2.244915731086067 0.4044467735103191 2.4682193645949053 0 0 0
3127 766 2 0.5564 0.3599676145759169 6.084284025619928 3.8219973547413795 2 6 0
3125 766 1 -1.1128 0.930602951830561 6.19044852754233 3.0608562124795746 2 6 0
2574 582 2 0.5564 2.9242614349451728 6.285497692077866 5.91229538808931 2 2 0
3101 758 1 -1.1128 2.4699238959035505 1.101793490681535 4.264814684225414 2 4 0
4408 1193 2 0.5564 -1.2627325335430186 6.065704739388654 11.037444971478326 1 1 0
4098 1090 2 0.5564 8.000518012703738 7.187835645025681 5.468865941431382 0 -1 0
3103 758 2 0.5564 2.9570519791014966 1.91789868409961 4.378444590361652 2 4 0
2658 610 2 0.5564 2.4343891203406325 3.5879449547582762 1.1274726966950581 1 1 0
3102 758 2 0.5564 2.324537106048709 0.783068141058317 5.155606570694923 2 4 0
2657 610 1 -1.1128 2.178549786762715 3.79085153120216 2.0272565530408344 1 1 0
1558 243 2 0.5564 3.257539471314814 3.835574655890504 3.351934703204588 0 4 0
2659 610 2 0.5564 1.9385886319341983 4.717228739329973 2.005424578208284 1 1 0
2902 691 2 0.5564 4.3011559697580575 5.113332302622419 0.3440634755805498 0 3 0
4950 1374 2 0.5564 5.96761310416846 3.5099953917713624 3.1294141530445514 1 -3 0
2573 582 1 -1.1128 3.5636438714744587 6.114734108866634 5.220729890134976 2 2 0
3013 728 2 0.5564 10.995374899473644 3.833345032689864 1.0335744872878205 -2 1 0
1557 243 2 0.5564 3.8239338800064835 4.559707662030104 4.554733098434938 0 4 0
1556 243 1 -1.1128 3.9262107003378 3.7636939436904693 4.0330689997662725 0 4 0
4056 1076 2 0.5564 4.417075795747012 4.49740863947869 6.5694942211952165 -4 3 0
1660 277 2 0.5564 4.116446142869319 6.799384638113679 1.9484471811646602 0 2 0
4055 1076 1 -1.1128 4.989694057915797 3.84733194687681 6.97660658890992 -4 3 0
1658 277 1 -1.1128 3.454229352022774 7.456513794991879 2.1626566969311822 0 2 0
3111 761 2 0.5564 7.396540986489164 0.20246599371346385 3.8249655191476823 1 2 0
977 50 1 -1.1128 2.9596564898228865 -0.14677201362425 6.84472005248025 -2 -2 0
878 17 1 -1.1128 12.54907036312012 1.9299451080003651 6.397262392788006 -2 2 0
840 4 2 0.5564 -0.02513852728842505 6.523060516141866 6.3430132112891116 -1 1 0
4870 1347 2 0.5564 -1.3890346652330527 5.82760419116352 7.520473751634359 0 2 0
4120 1097 2 0.5564 4.986741445568559 3.658124553605031 8.996947786497163 1 1 0
841 4 2 0.5564 -1.1661142521940726 7.388694439949304 5.852349660157146 -1 1 0
1039 70 2 0.5564 10.17023869189546 0.9524950649247229 11.882770673227757 -1 4 0
979 50 2 0.5564 2.1434555947972136 0.007199071569464727 7.32047796316665 -2 -2 0
3316 829 2 0.5564 4.3561366032821205 0.5603531500722535 7.803020339194192 -5 1 0
1494 222 2 0.5564 14.028171685485155 3.5695069535855857 13.772047979643876 2 0 0
3053 742 1 -1.1128 -0.5734745463632933 4.548889709467981 1.0104333013436415 3 0 0
3226 799 2 0.5564 13.776113957039401 3.0830260529370146 19.399173255902262 -1 -1 0
4372 1181 2 0.5564 1.6604953291524223 0.24150623866693133 1.0812091563082484 0 0 0
2754 642 2 0.5564 4.8648574320620925 0.6538235412072795 16.93238765334559 2 2 0
1320 164 2 0.5564 4.426688478209356 0.7607995256119662 14.647649251988629 -1 3 0
4949 1374 1 -1.1128 6.322716516242095 3.6049527906802945 2.24560495995474 1 -3 0
2535 569 2 0.5564 13.676441693040152 1.8670244945001517 1.5867561674258421 2 -1 0
3483 885 2 0.5564 -0.6837122287206394 6.998705999184346 15.808798487960429 5 0 0
3346 839 2 0.5564 13.335424654616759 0.5786441080902394 5.615334711743408 0 1 0
4957 1376 2 0.5564 12.138690827159731 2.8563897439155856 2.7072874130841877 -2 0 0
5017 1396 2 0.5564 7.0637650727151104 1.843413453781476 5.479402679489048 1 0 0
4955 1376 1 -1.1128 12.600693632515723 3.300546312662648 1.9962947157420468 -2 0 0
4920 1364 2 0.5564 11.52249505486015 1.99886713234472 4.912245150586199 5 0 0
3368 847 1 -1.1128 13.380029501293105 5.791128552819165 5.883079987303853 2 -1 0
4951 1374 2 0.5564 6.605020513794527 2.722726081126501 2.004330379967541 1 -3 0
4919 1364 1 -1.1128 11.364506104957425 1.9714295127419224 3.968573788906567 5 0 0
2998 723 2 0.5564 10.207924271472137 2.9416474028951076 4.740841324286253 -2 -2 0
2997 723 2 0.5564 9.588594544901522 4.288756798739614 4.434864707619928 -2 -2 0
2554 575 2 0.5564 6.2428727610751205 5.534650485192158 7.281115263137091 -2 -1 0
2552 575 1 -1.1128 6.5529245393208555 6.415024599234391 7.4933440576661665 -2 -1 0
2996 723 1 -1.1128 9.647633633649216 3.6202567413911755 5.117399377328831 -2 -2 0
5015 1396 1 -1.1128 6.978626351079259 2.7960099176359887 5.440099013365224 1 0 0
4057 1076 2 0.5564 5.4263427895282055 3.4178947071625663 6.240973175925599 -4 3 0
2232 468 2 0.5564 9.942076045897545 7.477865324857482 1.5923013060045372 0 3 0
1819 330 2 0.5564 10.395829107468286 4.299158602710793 6.687619958999249 -1 -1 0
3369 847 2 0.5564 12.64029306483358 5.256667003201001 6.171825901716254 2 -1 0
5016 1396 2 0.5564 7.824522292364844 3.0991485125933305 5.110249081504798 1 0 0
3259 810 2 0.5564 11.930223387197442 6.64946285235965 3.010448554181968 -2 2 0
2231 468 1 -1.1128 10.134341677109676 7.217894889155399 2.493235486926926 0 3 0
1280 151 1 -1.1128 6.891225287382076 0.6863186465456809 1.9691853747700248 3 2 0
4370 1181 1 -1.1128 1.940734700849473 -0.25817620005468306 1.8480289882423655 0 0 0
2251 474 2 0.5564 7.826083733628124 4.602524977346401 2.427614304407219 4 -5 0
3258 810 2 0.5564 12.77727835710112 5.97445879417339 4.0681668345706195 -2 2 0
3370 847 2 0.5564 14.074118073244064 5.1591254742624955 5.695876891569214 2 -1 0
2249 474 1 -1.1128 8.722472144043516 4.8689535243962805 2.63190547459607 4 -5 0
436 2 4 0 9.82419 2.836 22.709149600932808 0 0 0
2671 614 2 0.5564 7.45133230673582 7.648790025045427 2.667711425668511 6 -2 0
2452 541 2 0.5564 6.096701807487138 7.4297120488039035 18.04919440994674 -4 -1 0
2233 468 2 0.5564 9.55644242504623 6.472489538631802 2.656445210429548 0 3 0
3257 810 1 -1.1128 12.648022501707572 6.02596523971883 3.121132306025391 -2 2 0
2250 474 2 0.5564 9.23512367767007 4.587354229160198 1.8741974422096146 4 -5 0
4407 1193 2 0.5564 -0.8467653025603895 7.497086697325868 10.772842189620066 1 1 0
4921 1364 2 0.5564 11.414282738809144 1.0423202387119237 3.7438276063529288 5 0 0
4818 1330 2 0.5564 0.6342631245653685 6.751775740807288 11.954548018697919 -2 4 0
2858 677 1 -1.1128 11.586387544501699 1.1797416792171027 8.853464370254354 0 3 0
879 17 2 0.5564 12.16143407773411 1.7374801392264902 7.251034734547775 -2 2 0
4956 1376 2 0.5564 12.850856249316617 4.147725609481644 2.364990541362479 -2 0 0
4899 1357 2 0.5564 7.443572001249812 2.655890942880705 7.631637154211844 4 1 0
2553 575 2 0.5564 6.708477109694132 6.3935483780699665 8.437576349613186 -2 -1 0
4154 1109 1 -1.1128 9.505573953286671 7.551755639524693 7.908120810742308 0 -1 0
2900 691 1 -1.1128 5.014282859397041 5.452262326083579 0.8851808958433232 0 3 0
2860 677 2 0.5564 10.945598522279997 0.6978759212327496 9.37636612915676 0 3 0
1346 173 1 -1.1128 11.837562657524373 7.481967875576098 19.334246096765966 3 0 0
487 2 4 0 8.59617 6.381 22.709149600932808 0 0 0
4898 1357 1 -1.1128 7.931674843370962 2.061159683691066 8.201094672978659 4 1 0
1172 115 1 -1.1128 9.552190728879692 -0.44439294764946813 15.561082370361317 3 4 0
1316 163 1 -1.1128 -1.666919236756466 0.13135357553185018 2.9284450491832623 2 0 0
2051 408 1 -1.1128 1.1011759091880344 3.7059449023313125 8.491195899211393 2 -2 0
2053 408 2 0.5564 0.9744963117877391 3.019410231993709 9.146068273371366 2 -2 0
2052 408 2 0.5564 0.2284088166998157 4.076512262095409 8.360076024196472 2 -2 0
3604 925 2 0.5564 1.7709663359056378 6.004624453395608 20.085740261296998 -2 -2 0
3062 745 1 -1.1128 -1.5605970616387865 4.577418034732751 19.480966944857574 -2 2 0
2853 675 2 0.5564 -0.19770000861314696 2.653668401676455 6.191659599574005 4 1 0
2854 675 2 0.5564 -1.4237643245375684 2.281735647767662 5.385231005606655 4 1 0
3063 745 2 0.5564 -0.901223017907323 5.200200877748438 19.786903929517255 -2 2 0
1475 216 1 -1.1128 3.9540914337020854 7.020343175748202 12.373242562134928 0 1 0
1038 70 2 0.5564 8.829373681585256 0.5321545178517253 11.31948308264157 -1 4 0