LAMMPS data file via write_data, version 2 Aug 2023, timestep = 5750000, units = real

3232 atoms
4 atom types
1600 bonds
1 bond types
800 angles
1 angle types
0 impropers
1 improper types

-1.8420299999999998 30.08661 xlo xhi
-0.709 33.323 ylo yhi
-150 150 zlo zhi

Masses

1 15.9994
2 1.00794
3 12.0107
4 12.0107

Pair Coeffs # lj/cut/tip4p/long

1 0.1852 3.1589
2 0 0
3 0.0859 3.3997
4 0.0859 3.3997

Bond Coeffs # harmonic

1 5000 0.9572

Angle Coeffs # harmonic

1 500 104.52

Atoms # full

1 1 3 0 0 0 -13.028967241974486 0 0 0
2 1 3 0 -1.22802 0.709 -13.028967241974486 0 0 0
3 1 3 0 -1.22802 2.127 -13.028967241974486 0 0 0
4 1 3 0 0 2.836 -13.028967241974486 0 0 0
5 1 3 0 2.45605 0 -13.028967241974486 0 0 0
6 1 3 0 1.22802 0.709 -13.028967241974486 0 0 0
7 1 3 0 1.22802 2.127 -13.028967241974486 0 0 0
8 1 3 0 2.45605 2.836 -13.028967241974486 0 0 0
9 1 3 0 4.9121 0 -13.028967241974486 0 0 0
10 1 3 0 3.68407 0.709 -13.028967241974486 0 0 0
11 1 3 0 3.68407 2.127 -13.028967241974486 0 0 0
12 1 3 0 4.9121 2.836 -13.028967241974486 0 0 0
14 1 3 0 6.14012 0.709 -13.028967241974486 0 0 0
15 1 3 0 6.14012 2.127 -13.028967241974486 0 0 0
53 1 3 0 0 4.254 -13.028967241974486 0 0 0
54 1 3 0 -1.22802 4.963 -13.028967241974486 0 0 0
55 1 3 0 -1.22802 6.381 -13.028967241974486 0 0 0
56 1 3 0 0 7.09 -13.028967241974486 0 0 0
57 1 3 0 2.45605 4.254 -13.028967241974486 0 0 0
58 1 3 0 1.22802 4.963 -13.028967241974486 0 0 0
59 1 3 0 1.22802 6.381 -13.028967241974486 0 0 0
60 1 3 0 2.45605 7.09 -13.028967241974486 0 0 0
61 1 3 0 4.9121 4.254 -13.028967241974486 0 0 0
62 1 3 0 3.68407 4.963 -13.028967241974486 0 0 0
63 1 3 0 3.68407 6.381 -13.028967241974486 0 0 0
64 1 3 0 4.9121 7.09 -13.028967241974486 0 0 0
66 1 3 0 6.14012 4.963 -13.028967241974486 0 0 0
67 1 3 0 6.14012 6.381 -13.028967241974486 0 0 0
1529 234 1 -1.1128 5.0646964975554285 2.7541795961867357 -8.962362277169534 4 -1 0
1531 234 2 0.5564 4.317300051773285 2.730239508252358 -9.559905767853127 4 -1 0
1530 234 2 0.5564 5.532204635796638 3.5564477099950396 -9.19481984017355 4 -1 0
1889 354 1 -1.1128 2.0687715234503132 3.018616993977247 -9.863387941123651 -1 1 0
2666 613 1 -1.1128 8.962967201007991 -0.5451631179305005 -9.777188654114028 -1 -4 0
2092 421 2 0.5564 13.553570693800555 7.087233810571414 -4.373182972120269 1 -3 0
1890 354 2 0.5564 1.4866001546559848 2.8154349720869645 -10.59552623424715 -1 1 0
1317 163 2 0.5564 13.864498950758305 5.2737001273683095 -2.7541699771091235 -2 5 0
1891 354 2 0.5564 1.6069222087883657 2.6912459310302705 -9.091532762045821 -1 1 0
1207 126 2 0.5564 -0.8774432566477988 -0.1888777644770665 -2.206385574751709 3 4 0
1491 221 2 0.5564 -1.1546361242243308 7.043853867425541 -0.444881096101907 -3 -2 0
2136 436 2 0.5564 7.104402916257388 1.2832025409844188 -5.735506503790382 0 1 0
2135 436 1 -1.1128 7.746260652493836 0.7447562060539261 -6.198460957751959 0 1 0
2207 460 1 -1.1128 11.94111367783631 0.3820771787662144 -7.401491312406906 1 4 0
944 39 1 -1.1128 3.048763683621712 6.152430553844727 -9.000796184307683 -3 0 0
1146 106 2 0.5564 4.459207350421353 4.066030356408391 -6.248331375471759 6 1 0
2424 532 2 0.5564 3.4743445180643038 0.925415611913907 -0.5333034528712332 1 -2 0
945 39 2 0.5564 3.6124574854234726 6.602709156115828 -9.629868839718592 -3 0 0
1045 72 2 0.5564 -0.5881535790370352 1.895407995557955 -9.344517554371295 2 2 0
1043 72 1 -1.1128 -1.1780149177466364 2.359191549736745 -9.93882770375946 2 2 0
2137 436 2 0.5564 7.464097668949043 0.7679564069729029 -7.1128367073989995 0 1 0
2345 506 1 -1.1128 5.380337077783528 7.375928902680688 -9.707171588457332 4 -1 0
2667 613 2 0.5564 8.29917061761653 0.10205638280062393 -9.539037405163583 -1 -4 0
1870 347 2 0.5564 -0.17265683911004617 5.9503567045493435 -9.046242006312374 1 0 0
2346 506 2 0.5564 5.18006401701367 7.561006451076301 -8.789636683043309 4 -1 0
1718 297 1 -1.1128 12.230629257214119 7.416030380857975 -0.2698801101457008 1 0 0
1492 221 2 0.5564 -0.38566364157832156 5.7509701811694605 -0.615261907322044 -3 -2 0
3012 728 2 0.5564 8.713705234957988 3.985208942128323 -8.968107846036904 2 -3 0
3013 728 2 0.5564 9.37607968073077 3.172076662886065 -7.876330965183421 2 -3 0
3011 728 1 -1.1128 9.465133449630153 3.417403285269432 -8.797265292279377 2 -3 0
2591 588 1 -1.1128 11.741131840539941 5.103197889501127 -9.476734473857649 0 -3 0
13 1 3 0 7.36814 0 -13.028967241974486 0 0 0
16 1 3 0 7.36814 2.836 -13.028967241974486 0 0 0
17 1 3 0 9.82419 0 -13.028967241974486 0 0 0
18 1 3 0 8.59617 0.709 -13.028967241974486 0 0 0
19 1 3 0 8.59617 2.127 -13.028967241974486 0 0 0
20 1 3 0 9.82419 2.836 -13.028967241974486 0 0 0
21 1 3 0 12.2802 0 -13.028967241974486 0 0 0
22 1 3 0 11.0522 0.709 -13.028967241974486 0 0 0
23 1 3 0 11.0522 2.127 -13.028967241974486 0 0 0
24 1 3 0 12.2802 2.836 -13.028967241974486 0 0 0
26 1 3 0 13.5083 0.709 -13.028967241974486 0 0 0
27 1 3 0 13.5083 2.127 -13.028967241974486 0 0 0
65 1 3 0 7.36814 4.254 -13.028967241974486 0 0 0
68 1 3 0 7.36814 7.09 -13.028967241974486 0 0 0
69 1 3 0 9.82419 4.254 -13.028967241974486 0 0 0
70 1 3 0 8.59617 4.963 -13.028967241974486 0 0 0
71 1 3 0 8.59617 6.381 -13.028967241974486 0 0 0
72 1 3 0 9.82419 7.09 -13.028967241974486 0 0 0
73 1 3 0 12.2802 4.254 -13.028967241974486 0 0 0
74 1 3 0 11.0522 4.963 -13.028967241974486 0 0 0
75 1 3 0 11.0522 6.381 -13.028967241974486 0 0 0
76 1 3 0 12.2802 7.09 -13.028967241974486 0 0 0
78 1 3 0 13.5083 4.963 -13.028967241974486 0 0 0
79 1 3 0 13.5083 6.381 -13.028967241974486 0 0 0
2275 482 2 0.5564 9.260509115273107 1.858318721646353 -6.180566650118906 0 -2 0
2273 482 1 -1.1128 9.7238444848536 2.690547060880589 -6.08595426496993 0 -2 0
2274 482 2 0.5564 10.451952567485346 2.4941818174742934 -5.4964334531491374 0 -2 0
2708 627 1 -1.1128 11.311172992578225 1.6444390469640346 -9.71449370806746 -2 -3 0
2709 627 2 0.5564 12.147681764076422 2.067639830442444 -9.907849417929933 -2 -3 0
2710 627 2 0.5564 10.767655650439409 2.3427243816970704 -9.349498462253369 -2 -3 0
2592 588 2 0.5564 11.189808177986883 4.388870567335218 -9.796127754247763 0 -3 0
1774 315 2 0.5564 13.017580942528467 3.839712668746661 -9.04136159519829 -6 -2 0
1933 368 2 0.5564 4.441209565731142 0.6185978732978745 -6.948815516969805 -1 5 0
1786 319 2 0.5564 7.0744149407557995 5.39492052755323 -8.676589435650794 1 4 0
3039 737 2 0.5564 6.748614528233205 6.9385621325683156 -7.05582165333696 3 1 0
1784 319 1 -1.1128 6.981505085265305 4.714871522522527 -9.34377523974809 1 4 0
1633 268 2 0.5564 1.7276891406045907 6.187689190556449 -5.4570782901932 3 -2 0
2593 588 2 0.5564 11.437657558757897 5.259126207033125 -8.582405620247158 0 -3 0
1921 364 2 0.5564 12.335232672641952 0.06566503912166387 -1.7941176966855839 0 0 0
2314 495 2 0.5564 -0.5437942020609638 5.494098057272823 -5.933831215478613 3 2 0
2502 558 2 0.5564 0.2408384064482693 1.7846684603606688 -7.055745350345368 2 -2 0
2503 558 2 0.5564 0.7098106320826567 0.8872310225639711 -8.181163699810588 2 -2 0
2501 558 1 -1.1128 0.5585731177202242 1.805788125241646 -7.958425322162271 2 -2 0
2384 519 1 -1.1128 -1.7127495273643005 3.8375657156571417 -3.267580748457935 1 4 0
2213 462 1 -1.1128 4.354222256431981 2.423127979394764 -4.118417602282174 0 4 0
2913 695 2 0.5564 12.69220047734837 5.592330748553459 -0.8953990841985648 -2 2 0
1147 106 2 0.5564 4.003000915887192 5.406001442608899 -5.71144130356815 6 1 0
1931 368 1 -1.1128 4.397445112789724 1.5038073851442915 -6.58726180225906 -1 5 0
1915 362 2 0.5564 13.66173307516756 -0.12996022871235235 -6.896359578974884 4 2 0
957 43 2 0.5564 3.3260956775073276 -0.6589333228789275 -4.859006578886057 -3 -1 0
1584 252 2 0.5564 0.06997901969167646 1.250491907593422 -4.490571805425454 1 -1 0
2334 502 2 0.5564 1.2609700957346106 6.835763576914135 -2.547967601224519 0 -1 0
1468 213 2 0.5564 5.697216773329143 5.059650600509934 -3.990421689463862 -2 -1 0
2333 502 1 -1.1128 1.9764154286248445 6.200389026863634 -2.5220323627135346 0 -1 0
1869 347 2 0.5564 1.2027670339500875 6.5783044080300614 -8.970151520052696 1 0 0
946 39 2 0.5564 3.1417191455591507 5.224502663374317 -9.216530401483142 -3 0 0
1773 315 2 0.5564 13.510511848010122 3.2146507506199953 -7.753645352383101 -6 -2 0
2008 393 2 0.5564 0.6948302951941479 2.3279593063442436 -3.134729280804689 0 0 0
2006 393 1 -1.1128 -0.07997842307723035 1.8097572576757266 -2.917081990915979 0 0 0
2007 393 2 0.5564 -0.8090091746864522 2.4256809639758123 -2.9904627342417194 0 0 0
1145 106 1 -1.1128 4.76581944613647 4.829781318216128 -5.759551594073723 6 1 0
2391 521 2 0.5564 2.1576921577586163 4.543220417499862 -3.378535116122569 1 2 0
1585 252 2 0.5564 0.7617762586456873 0.18675468238086276 -5.316268598403859 1 -1 0
2215 462 2 0.5564 4.445908920587045 2.0971541766605837 -5.0137235668482365 0 4 0
2214 462 2 0.5564 3.5311014541949226 2.911672430890886 -4.124013251780627 0 4 0
2392 521 2 0.5564 1.4254962194067509 4.167584040911956 -4.6492367104187515 1 2 0
2390 521 1 -1.1128 1.8097488482443351 3.7910610955263473 -3.8575208153529874 1 2 0
2125 432 2 0.5564 4.794143433070777 7.326936086174688 -1.3193478400702745 -2 0 0
1583 252 1 -1.1128 0.17389256255105265 0.9385893848929912 -5.389544098134512 1 -1 0
2529 567 2 0.5564 6.155187887944274 7.797981976141678 -3.7597411791442212 2 0 0
2335 502 2 0.5564 1.800582445196024 5.672650221828215 -1.7430541668103972 0 -1 0
1772 315 1 -1.1128 13.483752698200535 3.076375320991353 -8.700427741277101 -6 -2 0
1632 268 2 0.5564 2.502491127773009 7.258942843638792 -6.194637294204828 3 -2 0
2090 421 1 -1.1128 13.246017528699284 7.794934941791669 -4.939580386185209 1 -3 0
2536 569 2 0.5564 7.981120185579087 1.8003389744421903 -8.935267929670712 3 -2 0
1932 368 2 0.5564 4.496772374810632 2.0782944074509104 -7.346426906014373 -1 5 0
1785 319 2 0.5564 6.675037894400779 5.181678872528791 -10.121207880355373 1 4 0
2668 613 2 0.5564 9.784980933822276 -0.054767221144471766 -9.783315354120532 -1 -4 0
2123 432 1 -1.1128 5.45238824508537 6.962102785955473 -0.7278726677989736 -2 0 0
1631 268 1 -1.1128 2.6093959379915574 6.54343744350291 -5.567854670712934 3 -2 0
2535 569 2 0.5564 6.46920959061258 1.751929073860994 -8.874613500086962 3 -2 0
2312 495 1 -1.1128 0.3406291411107811 5.131178680429065 -5.981967359902385 3 2 0
2914 695 2 0.5564 12.325355754699817 4.202139800580765 -0.42138434936384256 -2 2 0
2313 495 2 0.5564 0.2817813979870889 4.442654024191483 -6.644314047507024 3 2 0
1580 251 1 -1.1128 12.052392873055735 1.8902031069147978 -4.934552007593505 -1 -1 0
936 36 2 0.5564 3.3927808390400376 7.515577817894894 -3.361063267510919 -2 1 0
1404 192 2 0.5564 8.797277062508675 4.467030188801065 -5.4154886538583 0 2 0
1067 80 1 -1.1128 8.28710066851668 7.1558193034127 -1.522567303496272 -1 2 0
2621 598 1 -1.1128 1.8642305570677007 -0.5238809824894891 -9.085431819419952 3 -2 0
1490 221 1 -1.1128 -1.2725967022876343 6.110855410516641 -0.6232984584560323 -3 -2 0
1467 213 2 0.5564 7.171081550078214 5.395935784118968 -3.909608611450269 -2 -1 0
1105 92 2 0.5564 10.533296469650635 4.682360064786324 -2.1042560574995774 0 2 0
2534 569 1 -1.1128 7.248080094305823 1.2016451951434517 -8.792264520805588 3 -2 0
2124 432 2 0.5564 5.556764967927021 7.625924003841087 -0.046197418838724476 -2 0 0
1752 308 2 0.5564 9.787396859011597 -0.383048181109873 -2.3783907245595324 0 2 0
3040 737 2 0.5564 7.7580279300152 6.184658265820007 -6.216410997814209 3 1 0
2561 578 1 -1.1128 10.964787713787345 5.836725675955642 -6.449385342373634 2 1 0
1581 251 2 0.5564 12.52948350694594 1.4241083679951683 -4.24798605303491 -1 -1 0
1466 213 1 -1.1128 6.361360676388626 5.414507116186258 -3.399470396330577 -2 -1 0
1496 223 1 -1.1128 6.428424385819033 4.215029266567959 -0.6520840686732087 -2 -3 0
2209 460 2 0.5564 11.961282689793249 0.9976382489788859 -8.134232909492706 1 4 0
2595 589 2 0.5564 12.23789536207642 4.876605320655625 -5.909647830547673 -1 2 0
1498 223 2 0.5564 6.17411806595657 5.039028307745946 -1.0675219937545404 -2 -3 0
1497 223 2 0.5564 6.434727028823223 3.5780046243336083 -1.3665017861862059 -2 -3 0
1131 101 2 0.5564 5.81854043413729 0.17194925979770898 -2.468149129200627 -4 1 0
2623 598 2 0.5564 2.6441011112697552 -0.6857008082986044 -8.554535088373036 3 -2 0
1069 80 2 0.5564 7.358317578600545 6.96787186241867 -1.3873870038525322 -1 2 0
2904 692 2 0.5564 12.350918326961681 7.003528944251416 -9.589349784696108 1 0 0
1582 251 2 0.5564 12.167326528317476 1.3495537363665648 -5.7160393209501015 -1 -1 0
2912 695 1 -1.1128 12.379396524954814 4.743703199707031 -1.2087993588537334 -2 2 0
1405 192 2 0.5564 9.074550013366235 5.0179918874050555 -4.032933973026401 0 2 0
1132 101 2 0.5564 5.366359994549206 1.5640888363967393 -2.854641068696636 -4 1 0
1868 347 1 -1.1128 0.275786690220694 6.76593264755102 -8.822708017094286 1 0 0
2830 667 2 0.5564 -1.6430945302264741 -0.04565090233847751 -6.4400177473105815 2 -2 0
1709 294 1 -1.1128 8.641096104301191 1.352526346666245 -1.551396046413939 3 -3 0
2596 589 2 0.5564 12.980771981879379 3.630375313976953 -5.477281128501856 -1 2 0
2594 589 1 -1.1128 13.097831651682508 4.457634510494479 -5.944369333501074 -1 2 0
1711 294 2 0.5564 7.696554110738273 1.3761630768402369 -1.7047554149281987 3 -3 0
1103 92 1 -1.1128 9.621099743376208 4.7223763524159414 -2.391534926383455 0 2 0
1919 364 1 -1.1128 13.137597752028888 -0.04907697093689653 -2.303309876301361 0 0 0
1130 101 1 -1.1128 5.986990282416368 1.0980544500542326 -2.294407073799267 -4 1 0
3038 737 1 -1.1128 7.5836042333385905 6.4739445989494895 -7.112026437364362 3 1 0
1104 92 2 0.5564 9.217962160862873 5.375912061679638 -1.8200408868473315 0 2 0
2562 578 2 0.5564 10.387568313030245 5.87671042168455 -5.686854010368431 2 1 0
1710 294 2 0.5564 8.920830951726543 2.264028932651127 -1.6359178428611114 3 -3 0
1403 192 1 -1.1128 8.707576372202748 5.257921165344773 -4.883814437477445 0 2 0
2563 578 2 0.5564 10.87799587825431 6.696340615518015 -6.861410392995475 2 1 0
1719 297 2 0.5564 11.933651149150517 7.648483441457892 -1.1496541179477597 1 0 0
2208 460 2 0.5564 11.51070664184282 -0.39678141754734136 -7.75414028378389 1 4 0
1205 126 1 -1.1128 -1.7379026019944595 -0.2596301936252229 -1.7930587876289754 3 4 0
1920 364 2 0.5564 13.789707335337187 -0.33328860020154366 -1.6628339008708246 0 0 0
2386 519 2 0.5564 -1.3009672490251345 4.699892546712838 -3.212254703441919 1 4 0
2341 504 2 0.5564 -1.7208199022857398 3.9505262663218628 -9.40954654999458 6 1 0
1411 194 2 0.5564 14.063135468734234 5.707505998001466 -7.036598777274914 0 -3 0
1071 81 2 0.5564 8.900143302722748 7.65062966004412 -7.376688474212046 -1 -1 0
2891 688 1 -1.1128 1.773148170993935 4.602585185145391 3.1025247904697895 0 -2 0
2893 688 2 0.5564 1.3164268131311674 3.778400819414339 2.9341254457633226 0 -2 0
3084 752 2 0.5564 2.0090212367769458 3.7881805671602846 7.607731287450536 -1 -4 0
2479 550 2 0.5564 1.9330579318847239 5.6748121588619 6.157294924974009 -1 2 0
2892 688 2 0.5564 1.6891330871335173 5.094726980995583 2.285841926785033 0 -2 0
2478 550 2 0.5564 1.9881898429706026 5.771395133123958 4.647483594905621 -1 2 0
1509 227 2 0.5564 3.713891510195374 2.62241878996233 4.8050572583763635 1 4 0
1253 142 1 -1.1128 14.003005601110061 6.405165212779238 3.9178070855759306 0 1 0
1440 204 2 0.5564 4.385656777244886 3.237972291629387 1.1452759944087003 0 -1 0
3083 752 1 -1.1128 1.7184986405956382 3.811847273025066 6.695990870609197 -1 -4 0
2954 709 1 -1.1128 -0.8903029348280054 3.0817619607726074 5.685319835493543 1 -1 0
2692 621 2 0.5564 7.992613973405698 0.9777844824407197 0.5300634719571585 -1 0 0
3025 732 2 0.5564 -1.207570658491193 2.492029998119621 2.386072349030775 0 -4 0
3023 732 1 -1.1128 -1.1279200775979707 3.3190058913989042 2.861466187617929 0 -4 0
2956 709 2 0.5564 0.017264520765025396 3.3486174377705558 5.831416914340362 1 -1 0
2955 709 2 0.5564 -1.0498737206760775 3.2699687530125807 4.760467622562259 1 -1 0
1510 227 2 0.5564 3.173486386808525 1.2090887419169418 4.853593082587286 1 4 0
1508 227 1 -1.1128 3.397709451303734 1.953351014212414 5.41218935727731 1 4 0
2477 550 1 -1.1128 2.0118253448270416 6.305435592654623 5.441511175087585 -1 2 0
3085 752 2 0.5564 2.3377718787691557 3.248351330237196 6.232084801686113 -1 -4 0
918 30 2 0.5564 13.549325570293837 7.781091946409287 2.8075394261929256 1 -3 0
3155 776 1 -1.1128 1.839353240330778 5.1267636030188495 0.18924023765958298 3 1 0
1885 352 2 0.5564 6.084320601842117 6.74798718460647 3.30553389765995 -4 -1 0
2642 605 1 -1.1128 -0.8431147686593982 0.28430714812783536 2.8076017031223635 -1 -2 0
921 31 2 0.5564 -1.8084178451567077 4.346582181922144 6.4212995101634025 -3 -2 0
3024 732 2 0.5564 -1.6992544535980307 3.923861818216949 2.3882192775221336 0 -4 0
1566 246 2 0.5564 4.3423320585441605 1.2307041091886917 1.756089992127789 3 3 0
1565 246 1 -1.1128 4.698543370113648 1.508344695501437 2.6000487620928574 3 3 0
1567 246 2 0.5564 4.860370626826347 0.6917812340068752 3.0725617865631407 3 3 0
2425 532 2 0.5564 2.647615880987545 1.8903103871221214 0.28973558331442395 1 -2 0
2433 535 2 0.5564 12.085005132482166 4.4818557013391995 8.521976987999716 -1 -4 0
2643 605 2 0.5564 -0.970380541321893 -0.020167992967821725 3.7061174470010725 -1 -2 0
2261 478 1 -1.1128 1.0070332704042995 2.2096574837953202 0.42260541195917356 -2 1 0
3205 792 2 0.5564 9.437254648676602 -0.2120988806971889 3.3553582156411137 0 3 0
3203 792 1 -1.1128 8.548998274728302 0.04627057391303099 3.6012809573589806 0 3 0
1840 337 2 0.5564 13.573410140119565 7.273425291574921 8.708073851185956 2 1 0
1523 232 1 -1.1128 13.31412566983045 1.0684297453456324 3.2375905294718734 3 0 0
1086 86 2 0.5564 3.1888595247004377 7.487211909049885 5.761577413336185 5 1 0
1601 258 1 -1.1128 -1.1049122500928517 0.2911241423741666 5.8498449835817965 -1 -5 0
1838 337 1 -1.1128 13.780739852646944 7.102823300689772 9.626847319394763 2 1 0
3157 776 2 0.5564 1.8549538951926765 6.041909958707697 0.46941297389769865 3 1 0
1432 201 2 0.5564 11.293489316869987 0.17072544255006925 0.9936536663016919 -4 -1 0
1729 300 2 0.5564 5.0960257815029015 1.2099421714001755 6.669914827238348 3 -2 0
1462 211 2 0.5564 5.151417435301907 -0.6342055729134065 9.524350094348808 -1 3 0
2644 605 2 0.5564 -0.28724491164119376 -0.38268195931777577 2.40465488283385 -1 -2 0
2492 555 1 -1.1128 12.779402461559977 3.0707396579602224 5.572530239503758 -3 0 0
3173 782 1 -1.1128 4.639296995434932 4.855420848731901 6.4977039498057465 2 2 0
1652 275 1 -1.1128 6.799760925404877 7.653843776140405 9.253768628358227 -4 -2 0
490 2 4 0 11.0522 4.963 12.736959109302104 0 0 0
2812 661 2 0.5564 -1.097137450134972 1.155298424294174 8.863635942558625 3 5 0
2475 549 2 0.5564 -0.2526185152070501 7.432462545171424 7.0934157736270205 -1 1 0
2423 532 1 -1.1128 3.5457795698549472 1.5889849942437961 0.15284880542751594 1 -2 0
1255 142 2 0.5564 14.06043826169637 7.046081408960614 4.626441993293705 0 1 0
1727 300 1 -1.1128 5.783083610719206 1.40903804898447 7.305953151559578 3 -2 0
3174 782 2 0.5564 3.9195878596171667 5.21041545382298 5.975947790594886 2 2 0
3175 782 2 0.5564 5.0635740197473575 4.220397388079935 5.920671627706279 2 2 0
434 2 4 0 8.59617 0.709 12.736959109302104 0 0 0
492 2 4 0 12.2802 7.09 12.736959109302104 0 0 0
2474 549 1 -1.1128 -0.5774159458044887 6.850240896694259 7.780262359442357 -1 1 0
1416 196 2 0.5564 9.503643863440645 0.5866542701847725 9.16001552851019 -2 -2 0
1450 207 2 0.5564 10.004217558390371 6.874126841327046 1.1985118976237006 1 0 0
2476 549 2 0.5564 -1.3273426179054708 6.406585570571432 7.384008670107825 -1 1 0
1461 211 2 0.5564 4.263516361494471 0.10878664211087682 10.499793949610646 -1 3 0
1846 339 2 0.5564 13.773052979064165 2.7864094068785192 9.151304997148129 0 -4 0
2303 492 1 -1.1128 10.449330756369152 2.46034036560882 9.036553872288811 0 3 0
2304 492 2 0.5564 11.131878872743501 3.0310556370380377 9.3896063787475 0 3 0
1764 312 2 0.5564 8.113554292566254 5.208610138042329 1.9260029366321527 2 4 0
2052 408 2 0.5564 8.699887056155205 5.005798528195289 7.378646611667704 -3 1 0
1166 113 1 -1.1128 11.556866491428256 4.96312109367473 6.92584154169596 3 -1 0
3224 799 1 -1.1128 8.306546376826878 1.8297987735089345 5.551142800312686 0 -3 0
1521 231 2 0.5564 9.40004728255811 4.120519782779453 2.855744776263995 4 1 0
1520 231 1 -1.1128 9.677098085336443 3.619508966037601 3.6228587712610185 4 1 0
907 26 2 0.5564 5.588373484075968 4.97223130048786 2.29827110239151 2 1 0
1309 160 2 0.5564 5.831983923348278 2.686202040548451 3.7201610364442144 -1 -2 0
1308 160 2 0.5564 6.946017669460262 2.681202594213099 4.745248232232614 -1 -2 0
1765 312 2 0.5564 8.764283933513582 4.106135752726795 1.1179197768255014 2 4 0
1524 232 2 0.5564 13.039881898909622 1.4804164604476955 4.056913087310046 3 0 0
1307 160 1 -1.1128 6.1323163199400454 3.1290561821140024 4.51383309141596 -1 -2 0
1484 219 1 -1.1128 13.156269413602342 3.540572731645827 1.803750901199406 0 1 0
905 26 1 -1.1128 6.325498560780637 5.289792096336481 2.8198465018080876 2 1 0
906 26 2 0.5564 6.548172082654624 4.555792484936745 3.392468910357465 2 1 0
3226 799 2 0.5564 8.762937648187862 2.5333089382507783 5.089609376142788 0 -3 0
3225 799 2 0.5564 8.278312668105897 1.108891103751853 4.922073747876188 0 -3 0
2051 408 1 -1.1128 8.895926310595952 5.193094169744871 6.460646602840757 -3 1 0
1167 113 2 0.5564 11.876012458538753 5.865072662373106 6.955206517468794 3 -1 0
1763 312 1 -1.1128 8.950231477325845 4.942509676148035 1.5446929700065088 2 4 0
437 2 4 0 12.2802 0 12.736959109302104 0 0 0
3131 768 1 -1.1128 10.6636115060944 1.133213258199879 6.424016478444119 4 5 0
3133 768 2 0.5564 9.851505995123443 1.3938418978328033 5.989512147904253 4 5 0
2263 478 2 0.5564 0.9629168288839639 3.1631364898715044 0.3507470958854381 -2 1 0
486 2 4 0 8.59617 4.963 12.736959109302104 0 0 0
3132 768 2 0.5564 11.352871435371373 1.579641846557959 5.9322289608916865 4 5 0
1168 113 2 0.5564 10.6938303772238 5.027127189173352 6.516813177092137 3 -1 0
1522 231 2 0.5564 10.367127033042307 4.150816509772151 4.020104854595731 4 1 0
2053 408 2 0.5564 8.143182524769578 5.697814759342738 6.152641103438082 -3 1 0
1441 204 2 0.5564 5.098082773041353 4.339437854404894 0.3895523364397185 0 -1 0
1485 219 2 0.5564 12.987999057384878 4.051183708143677 2.595706851307454 0 1 0
1430 201 1 -1.1128 11.670679544896343 1.0085556016805377 0.7253248794625015 -4 -1 0
1720 297 2 0.5564 11.508420539778445 7.673637992723499 0.303081885647831 1 0 0
481 2 4 0 7.36814 4.254 12.736959109302104 0 0 0
1728 300 2 0.5564 6.432748670036414 1.9067728910803043 6.809538377949434 3 -2 0
1654 275 2 0.5564 6.354267999585358 6.839566620580652 9.48770407512225 -4 -2 0
1060 77 2 0.5564 -0.10105208321929735 -0.042520974864689295 7.477408014603211 1 6 0
1058 77 1 -1.1128 0.3790916213700473 -0.0181307539237019 8.305118380483103 1 6 0
2353 508 2 0.5564 0.30435642289743003 5.719768252789095 8.961805806730116 -1 3 0
2494 555 2 0.5564 12.31166760599099 3.7432354428864043 6.067713627806616 -3 0 0
1898 357 1 -1.1128 2.5775671134785956 7.368472149704244 9.821389032920976 -1 2 0
2351 508 1 -1.1128 0.4631019742593833 4.9986264167611045 9.5708927125146 -1 3 0
1899 357 2 0.5564 1.8610145649764247 6.870210996108681 10.214480051948149 -1 2 0
2352 508 2 0.5564 -0.35990429869976126 4.510036386405311 9.584061640083254 -1 3 0
1029 67 2 0.5564 4.1290804572513515 2.6968686717859702 9.585737692160233 -2 0 0
1030 67 2 0.5564 5.311259664659953 2.481662128435595 8.66484938569724 -2 0 0
1028 67 1 -1.1128 5.070992002429033 2.8516001319630866 9.514350900479272 -2 0 0
1149 107 2 0.5564 4.983598569271304 4.67187395026031 9.472921402291004 -3 0 0
1150 107 2 0.5564 5.045613937233121 5.5409928705833895 8.234906154272446 -3 0 0
2549 574 1 -1.1128 2.239751503266138 2.700918404554629 9.39479553676806 3 3 0
1148 107 1 -1.1128 4.997814649418254 5.586149286083569 9.189845454483802 -3 0 0
2551 574 2 0.5564 1.7878112156930537 3.5136580600676304 9.621595804130827 3 3 0
482 2 4 0 6.14012 4.963 12.736959109302104 0 0 0
480 2 4 0 4.9121 7.09 12.736959109302104 0 0 0
483 2 4 0 6.14012 6.381 12.736959109302104 0 0 0
417 2 4 0 0 0 12.736959109302104 0 0 0
418 2 4 0 -1.22802 0.709 12.736959109302104 0 0 0
419 2 4 0 -1.22802 2.127 12.736959109302104 0 0 0
420 2 4 0 0 2.836 12.736959109302104 0 0 0
421 2 4 0 2.45605 0 12.736959109302104 0 0 0
422 2 4 0 1.22802 0.709 12.736959109302104 0 0 0
423 2 4 0 1.22802 2.127 12.736959109302104 0 0 0
424 2 4 0 2.45605 2.836 12.736959109302104 0 0 0
425 2 4 0 4.9121 0 12.736959109302104 0 0 0
426 2 4 0 3.68407 0.709 12.736959109302104 0 0 0
427 2 4 0 3.68407 2.127 12.736959109302104 0 0 0
428 2 4 0 4.9121 2.836 12.736959109302104 0 0 0
430 2 4 0 6.14012 0.709 12.736959109302104 0 0 0
431 2 4 0 6.14012 2.127 12.736959109302104 0 0 0
469 2 4 0 0 4.254 12.736959109302104 0 0 0
470 2 4 0 -1.22802 4.963 12.736959109302104 0 0 0
471 2 4 0 -1.22802 6.381 12.736959109302104 0 0 0
472 2 4 0 0 7.09 12.736959109302104 0 0 0
473 2 4 0 2.45605 4.254 12.736959109302104 0 0 0
474 2 4 0 1.22802 4.963 12.736959109302104 0 0 0
475 2 4 0 1.22802 6.381 12.736959109302104 0 0 0
476 2 4 0 2.45605 7.09 12.736959109302104 0 0 0
477 2 4 0 4.9121 4.254 12.736959109302104 0 0 0
478 2 4 0 3.68407 4.963 12.736959109302104 0 0 0
479 2 4 0 3.68407 6.381 12.736959109302104 0 0 0
2550 574 2 0.5564 1.5434965020287448 2.0463299289054198 9.340251286813944 3 3 0
1900 357 2 0.5564 3.3524584710414174 6.823617431482155 9.958901384883738 -1 2 0
440 2 4 0 12.2802 2.836 12.736959109302104 0 0 0
2299 490 2 0.5564 10.037988233347825 7.398520025416266 10.430185218059595 0 -2 0
485 2 4 0 9.82419 4.254 12.736959109302104 0 0 0
1415 196 1 -1.1128 9.180483453781678 -0.2214896352404261 9.55839070432914 -2 -2 0
2767 646 2 0.5564 7.610776218338539 3.7422832704012308 9.74141904502194 0 -1 0
489 2 4 0 12.2802 4.254 12.736959109302104 0 0 0
2766 646 2 0.5564 9.085501536477183 3.7770261727035352 9.401016423434 0 -1 0
2434 535 2 0.5564 12.744189745492728 5.1696298452231515 9.698555868241929 -1 -4 0
442 2 4 0 13.5083 0.709 12.736959109302104 0 0 0
2690 621 1 -1.1128 7.763831596574911 1.3775647163285671 1.3691508686858775 -1 0 0
487 2 4 0 8.59617 6.381 12.736959109302104 0 0 0
2305 492 2 0.5564 10.866145653335753 2.0160926366495606 8.298216082246594 0 3 0
429 2 4 0 7.36814 0 12.736959109302104 0 0 0
495 2 4 0 13.5083 6.381 12.736959109302104 0 0 0
488 2 4 0 9.82419 7.09 12.736959109302104 0 0 0
1602 258 2 0.5564 -1.1358483001778565 1.2469947489262165 5.889732487097429 -1 -5 0
435 2 4 0 8.59617 2.127 12.736959109302104 0 0 0
3156 776 2 0.5564 2.687955337303093 4.777810306486783 0.46189085181704914 3 1 0
491 2 4 0 11.0522 6.381 12.736959109302104 0 0 0
433 2 4 0 9.82419 0 12.736959109302104 0 0 0
978 50 2 0.5564 6.567245711807267 -0.08173954358413076 7.958038030615641 -3 2 0
2765 646 1 -1.1128 8.289650550136686 4.308171986352555 9.373815576389008 0 -1 0
436 2 4 0 9.82419 2.836 12.736959109302104 0 0 0
1439 204 1 -1.1128 4.439027959867238 4.190518926554262 1.0675663635868957 0 -1 0
2691 621 2 0.5564 6.870947107858225 1.699765134745512 1.2459569226497356 -1 0 0
443 2 4 0 13.5083 2.127 12.736959109302104 0 0 0
494 2 4 0 13.5083 4.963 12.736959109302104 0 0 0
484 2 4 0 7.36814 7.09 12.736959109302104 0 0 0
439 2 4 0 11.0522 2.127 12.736959109302104 0 0 0
438 2 4 0 11.0522 0.709 12.736959109302104 0 0 0
432 2 4 0 7.36814 2.836 12.736959109302104 0 0 0
2012 395 1 -1.1128 8.804113930269187 7.592060312406163 3.5662877464584053 0 -2 0
2808 660 2 0.5564 13.400686077068514 -0.5369591992411104 6.346611677492107 -1 2 0
2493 555 2 0.5564 13.62690445822978 2.9956779134838287 6.011093883937751 -3 0 0
2432 535 1 -1.1128 12.505508830096632 4.305318533557508 9.363549230767555 -1 -4 0
1486 219 2 0.5564 12.99809032855009 2.633394590827067 2.0649823077184446 0 1 0
1525 232 2 0.5564 12.626050829014146 0.43071643679568017 3.047571831056378 3 0 0
1448 207 1 -1.1128 10.290279530054363 7.755441206624775 1.4386910669335031 1 0 0
1460 211 1 -1.1128 4.278985974413553 -0.6510126821701351 9.917816310247458 -1 3 0
2262 478 2 0.5564 0.10683871897602054 1.9409087017633053 0.6060605018245286 -2 1 0
1918 363 2 0.5564 1.9610628838085011 -0.5785049010415365 7.558373155433347 2 0 0
1865 346 1 -1.1128 12.447097442974243 7.4187778845360715 7.329903179399325 0 2 0
3204 792 2 0.5564 8.174633358968164 0.41142116621157837 2.79956505732066 0 3 0
1190 121 1 -1.1128 13.919876770933826 -0.5457145978661547 9.623101823207243 -1 0 0
1883 352 1 -1.1128 5.781228180209139 7.592917466796738 3.6378914669693385 -4 -1 0
1431 201 2 0.5564 10.95957698107216 1.6391932285606552 0.838732626594425 -4 -1 0
2014 395 2 0.5564 9.000853225521832 7.134218191025446 4.383543067806722 0 -2 0
1505 226 1 -1.1128 1.5156033907113484 7.651976699998667 0.7554275685754417 -4 -1 0
1464 212 2 0.5564 7.245042192035975 7.795192748789048 7.531054318958482 2 -4 0
1884 352 2 0.5564 5.160357442816216 7.3693333617332755 4.331261469283304 -4 -1 0
1463 212 1 -1.1128 7.2874622816096295 7.757098808101813 6.575553425149954 2 -4 0
2298 490 2 0.5564 8.689733217261384 7.742404265431637 9.833654822347771 0 -2 0
1866 346 2 0.5564 13.088859631963707 7.727198351575146 6.690173676637397 0 2 0
105 1 3 0 0 8.508 -13.028967241974486 0 0 0
106 1 3 0 -1.22802 9.217 -13.028967241974486 0 0 0
107 1 3 0 -1.22802 10.635 -13.028967241974486 0 0 0
108 1 3 0 0 11.344 -13.028967241974486 0 0 0
109 1 3 0 2.45605 8.508 -13.028967241974486 0 0 0
110 1 3 0 1.22802 9.217 -13.028967241974486 0 0 0
111 1 3 0 1.22802 10.635 -13.028967241974486 0 0 0
112 1 3 0 2.45605 11.344 -13.028967241974486 0 0 0
113 1 3 0 4.9121 8.508 -13.028967241974486 0 0 0
114 1 3 0 3.68407 9.217 -13.028967241974486 0 0 0
115 1 3 0 3.68407 10.635 -13.028967241974486 0 0 0
116 1 3 0 4.9121 11.344 -13.028967241974486 0 0 0
118 1 3 0 6.14012 9.217 -13.028967241974486 0 0 0
119 1 3 0 6.14012 10.635 -13.028967241974486 0 0 0
157 1 3 0 0 12.762 -13.028967241974486 0 0 0
158 1 3 0 -1.22802 13.471 -13.028967241974486 0 0 0
159 1 3 0 -1.22802 14.889 -13.028967241974486 0 0 0
160 1 3 0 0 15.598 -13.028967241974486 0 0 0
161 1 3 0 2.45605 12.762 -13.028967241974486 0 0 0
162 1 3 0 1.22802 13.471 -13.028967241974486 0 0 0