LAMMPS data file via write_data, version 2 Aug 2023, timestep = 5500000, units = real

3232 atoms
4 atom types
1600 bonds
1 bond types
800 angles
1 angle types
0 impropers
1 improper types

-1.8420299999999998 30.08661 xlo xhi
-0.709 33.323 ylo yhi
-150 150 zlo zhi

Masses

1 15.9994
2 1.00794
3 12.0107
4 12.0107

Pair Coeffs # lj/cut/tip4p/long

1 0.1852 3.1589
2 0 0
3 0.0859 3.3997
4 0.0859 3.3997

Bond Coeffs # harmonic

1 5000 0.9572

Angle Coeffs # harmonic

1 500 104.52

Atoms # full

1 1 3 0 0 0 -13.028967241974486 0 0 0
2 1 3 0 -1.22802 0.709 -13.028967241974486 0 0 0
3 1 3 0 -1.22802 2.127 -13.028967241974486 0 0 0
4 1 3 0 0 2.836 -13.028967241974486 0 0 0
5 1 3 0 2.45605 0 -13.028967241974486 0 0 0
6 1 3 0 1.22802 0.709 -13.028967241974486 0 0 0
7 1 3 0 1.22802 2.127 -13.028967241974486 0 0 0
8 1 3 0 2.45605 2.836 -13.028967241974486 0 0 0
9 1 3 0 4.9121 0 -13.028967241974486 0 0 0
10 1 3 0 3.68407 0.709 -13.028967241974486 0 0 0
11 1 3 0 3.68407 2.127 -13.028967241974486 0 0 0
12 1 3 0 4.9121 2.836 -13.028967241974486 0 0 0
14 1 3 0 6.14012 0.709 -13.028967241974486 0 0 0
15 1 3 0 6.14012 2.127 -13.028967241974486 0 0 0
53 1 3 0 0 4.254 -13.028967241974486 0 0 0
54 1 3 0 -1.22802 4.963 -13.028967241974486 0 0 0
55 1 3 0 -1.22802 6.381 -13.028967241974486 0 0 0
56 1 3 0 0 7.09 -13.028967241974486 0 0 0
57 1 3 0 2.45605 4.254 -13.028967241974486 0 0 0
58 1 3 0 1.22802 4.963 -13.028967241974486 0 0 0
59 1 3 0 1.22802 6.381 -13.028967241974486 0 0 0
60 1 3 0 2.45605 7.09 -13.028967241974486 0 0 0
61 1 3 0 4.9121 4.254 -13.028967241974486 0 0 0
62 1 3 0 3.68407 4.963 -13.028967241974486 0 0 0
63 1 3 0 3.68407 6.381 -13.028967241974486 0 0 0
64 1 3 0 4.9121 7.09 -13.028967241974486 0 0 0
66 1 3 0 6.14012 4.963 -13.028967241974486 0 0 0
67 1 3 0 6.14012 6.381 -13.028967241974486 0 0 0
3029 734 1 -1.1128 4.36841434912201 5.266059504497232 -9.95389119650943 1 1 0
3030 734 2 0.5564 4.0909971769931515 4.360585562798977 -10.093153603509256 1 1 0
3031 734 2 0.5564 5.289775205791268 5.198921762836652 -9.703242717906466 1 1 0
2207 460 1 -1.1128 3.06996030121096 2.6878309814841748 -9.865982781324188 1 4 0
2208 460 2 0.5564 2.716088838994829 2.5381861740993434 -8.98927557486761 1 4 0
2327 500 1 -1.1128 -0.9578895119144755 0.4476557802605012 -9.7744953829587 0 0 0
2864 679 1 -1.1128 12.038673448333258 3.15374234152939 -3.6348371182202404 0 1 0
2209 460 2 0.5564 3.8187369792734467 2.0946677159323865 -9.927018174872765 1 4 0
1398 190 2 0.5564 2.1109978766299355 1.1852947443014878 -9.894585525592953 0 2 0
1683 285 2 0.5564 -0.12086178295745381 5.138667554988918 -10.577089095405102 1 3 0
1397 190 1 -1.1128 1.69360201234759 0.37333666654108294 -9.606936456265645 0 2 0
1399 190 2 0.5564 2.4120307106644567 -0.15649312531255782 -9.261430389697182 0 2 0
1682 285 1 -1.1128 -0.3123332323819005 5.398571506409051 -9.675966103566992 1 3 0
1684 285 2 0.5564 0.21200682146946284 6.187254131024382 -9.53710630406311 1 3 0
2525 566 1 -1.1128 4.796571621189587 0.4343541171587278 -9.331044413050767 1 1 0
2526 566 2 0.5564 5.449637710125591 0.35767740793904085 -8.635439776743425 1 1 0
2329 500 2 0.5564 -0.02759574796261782 0.4828581485807128 -9.997087424473568 0 0 0
1612 261 2 0.5564 4.420460414266013 5.819491780305595 -7.907086268132834 -7 1 0
2232 468 2 0.5564 10.698301095735287 -0.2121146748159677 -1.0037860030226717 -3 2 0
1758 310 2 0.5564 13.709449173204826 7.063011943906941 -9.391774935101495 -1 -1 0
2815 662 2 0.5564 4.488845528037232 7.606756887054506 -0.5283323809277698 2 -2 0
1382 185 1 -1.1128 10.902463813918411 1.11631045510721 -8.982215731313604 0 1 0
2623 598 2 0.5564 10.44564414693621 4.7724436314641725 -9.682819911541587 3 -3 0
1927 366 2 0.5564 6.979410328779745 4.589816326589162 -8.085802454146206 2 2 0
13 1 3 0 7.36814 0 -13.028967241974486 0 0 0
16 1 3 0 7.36814 2.836 -13.028967241974486 0 0 0
17 1 3 0 9.82419 0 -13.028967241974486 0 0 0
18 1 3 0 8.59617 0.709 -13.028967241974486 0 0 0
19 1 3 0 8.59617 2.127 -13.028967241974486 0 0 0
20 1 3 0 9.82419 2.836 -13.028967241974486 0 0 0
21 1 3 0 12.2802 0 -13.028967241974486 0 0 0
22 1 3 0 11.0522 0.709 -13.028967241974486 0 0 0
23 1 3 0 11.0522 2.127 -13.028967241974486 0 0 0
24 1 3 0 12.2802 2.836 -13.028967241974486 0 0 0
26 1 3 0 13.5083 0.709 -13.028967241974486 0 0 0
27 1 3 0 13.5083 2.127 -13.028967241974486 0 0 0
65 1 3 0 7.36814 4.254 -13.028967241974486 0 0 0
68 1 3 0 7.36814 7.09 -13.028967241974486 0 0 0
69 1 3 0 9.82419 4.254 -13.028967241974486 0 0 0
70 1 3 0 8.59617 4.963 -13.028967241974486 0 0 0
71 1 3 0 8.59617 6.381 -13.028967241974486 0 0 0
72 1 3 0 9.82419 7.09 -13.028967241974486 0 0 0
73 1 3 0 12.2802 4.254 -13.028967241974486 0 0 0
74 1 3 0 11.0522 4.963 -13.028967241974486 0 0 0
75 1 3 0 11.0522 6.381 -13.028967241974486 0 0 0
76 1 3 0 12.2802 7.09 -13.028967241974486 0 0 0
78 1 3 0 13.5083 4.963 -13.028967241974486 0 0 0
79 1 3 0 13.5083 6.381 -13.028967241974486 0 0 0
1925 366 1 -1.1128 7.07754929545276 4.976268713348709 -8.956007782373055 2 2 0
1926 366 2 0.5564 7.581763372546703 5.776298714922733 -8.807833784403288 2 2 0
2622 598 2 0.5564 10.193543140599473 6.182489440849132 -9.192807830306357 3 -3 0
2621 598 1 -1.1128 10.825767564235857 5.650907311430599 -9.676486570443391 3 -3 0
2834 669 1 -1.1128 9.427130712191582 3.3635952936932045 -8.911087116268797 3 -2 0
2835 669 2 0.5564 8.595799942649277 3.735642296021398 -9.20554226804734 3 -2 0
2836 669 2 0.5564 9.543680420017711 2.580644665487544 -9.449266373342969 3 -2 0
2394 522 2 0.5564 13.981023055858957 0.9860544217531205 -1.9537082497222604 -1 1 0
1213 128 2 0.5564 13.106015421405672 1.8762631975611215 -9.943773918497225 4 1 0
1212 128 2 0.5564 12.768844658492059 3.1891568221427433 -10.617958014330764 4 1 0
1370 181 1 -1.1128 8.986096969412069 6.955648376800631 -8.22873424117287 3 -2 0
1953 375 2 0.5564 13.362373953277196 -0.6087164147244479 -10.217725043356506 -2 -2 0
2508 560 2 0.5564 3.0879734967715335 6.025361065330803 -5.861118077156843 -3 0 0
1211 128 1 -1.1128 13.154851298400317 2.8243807600770134 -9.821610463826971 4 1 0
2350 507 2 0.5564 12.540352659771827 4.892875072772997 -3.5852473206853888 1 0 0
1371 181 2 0.5564 9.451120187642235 7.349395281079626 -7.490527159402069 3 -2 0
2395 522 2 0.5564 12.656005247786133 1.479357336075776 -1.4125283107831803 -1 1 0
928 33 2 0.5564 -0.9940613642191103 7.224100419632731 -3.6517071961996623 0 0 0
2071 414 2 0.5564 12.172608251230807 7.350069066305157 -2.5819043763224214 -1 1 0
2351 508 1 -1.1128 5.921102003941298 7.638652906962338 -5.9434983772802505 -1 3 0
2562 578 2 0.5564 3.7920070715936927 7.22855094903942 -2.412627692480021 2 1 0
2527 566 2 0.5564 4.341000729060769 -0.40747194783405916 -9.32636383148537 1 1 0
1653 275 2 0.5564 2.3303885356485172 -0.6506753105656006 -1.6242011286938538 -4 -2 0
2565 579 2 0.5564 10.390935559219567 -0.5824634855584179 -3.052219252632859 -3 1 0
1384 185 2 0.5564 11.76487368959237 1.5113480035325702 -8.854036211246692 0 1 0
2216 463 1 -1.1128 -1.8385392726143919 -0.3031490382983696 -3.2880053723065767 -1 0 0
2372 515 1 -1.1128 13.428220406971018 3.6182749077944742 -6.938226436981566 -1 1 0
2903 692 1 -1.1128 0.4266029329086538 4.454900035106544 -7.093361180765651 1 0 0
1239 137 2 0.5564 -0.24962345312900178 2.148514212672683 -4.18104452763557 -4 4 0
986 53 1 -1.1128 -0.7577194529805626 3.403696961612353 -2.8591917407819842 0 -4 0
3143 772 1 -1.1128 8.495315012500198 0.19155469053415788 -9.58280564669893 3 3 0
2895 689 2 0.5564 -1.1149815904238798 5.098649094419577 -1.4148854399581707 -1 0 0
2393 522 1 -1.1128 13.468081048700308 1.7827982781422222 -1.8183476687269897 -1 1 0
2238 470 2 0.5564 -1.057972149957188 7.6159256759519325 -6.198358942246018 2 0 0
1524 232 2 0.5564 9.754127430682377 3.6890817509102787 -1.6815619993805373 4 -1 0
1611 261 2 0.5564 4.537822693648269 4.600528058359892 -7.016999896886363 -7 1 0
1610 261 1 -1.1128 4.450582316876091 5.55331002555869 -6.988133860964844 -7 1 0
2740 637 2 0.5564 4.9946166676529575 0.10791981989355255 -0.2021291153628104 -2 0 0
3184 785 2 0.5564 2.41999317049611 2.168886005859128 -4.777848904440361 4 -3 0
3183 785 2 0.5564 3.6207789609660104 1.286561038093169 -4.510431649560805 4 -3 0
2894 689 1 -1.1128 -1.5387648925690063 5.86822234696516 -1.034887396318775 -1 0 0
2128 433 2 0.5564 4.7641732065933216 3.2558982815010773 -3.627532730318758 3 4 0
2904 692 2 0.5564 -0.24521276342528572 4.582296628283156 -6.423533741617064 1 0 0
2674 615 2 0.5564 1.5130226629624641 1.5763990270145187 -7.979015628691034 2 -1 0
3182 785 1 -1.1128 3.2092823192882607 2.107339544099056 -4.2398273855921635 4 -3 0
988 53 2 0.5564 -0.0013527644297417415 3.0406573997744797 -2.398370914458073 0 -4 0
2673 615 2 0.5564 1.420918374369289 3.0111366482703725 -7.504731605296818 2 -1 0
1165 112 2 0.5564 4.275180590476208 2.3706577783996914 -6.771333724219195 -1 2 0
1163 112 1 -1.1128 5.112758149443062 2.8291214616406073 -6.838480155542146 -1 2 0
1164 112 2 0.5564 5.766110249542718 2.1307121862447636 -6.878372175793064 -1 2 0
2672 615 1 -1.1128 1.9941736682380842 2.2446980948362567 -7.491057224297626 2 -1 0
2061 411 2 0.5564 1.9262858920027037 2.7929961222058384 -1.0028447117864514 -2 3 0
2062 411 2 0.5564 2.128482089740908 2.4844951150891834 -2.471124385417523 -2 3 0
2060 411 1 -1.1128 1.6661171695806558 3.0776023484234805 -1.8789448687939454 -2 3 0
2509 560 2 0.5564 1.7200985950128365 5.387261328114606 -5.977919885406655 -3 0 0
1206 126 2 0.5564 2.6758287382964565 4.695830817239662 -2.407790166865136 3 4 0
2126 433 1 -1.1128 5.2371485153519535 3.894632344634322 -3.0941002785485128 3 4 0
1207 126 2 0.5564 2.7127145239556296 5.561972307709324 -3.648893785716159 3 4 0
1205 126 1 -1.1128 3.014727201337687 5.526596826328456 -2.741273922153742 3 4 0
1221 131 2 0.5564 8.011760694039836 3.3286631506386217 -2.452244918666412 -1 -2 0
1238 137 1 -1.1128 -0.04257514471065737 1.280888783691916 -4.528305806215022 -4 4 0
2308 493 2 0.5564 6.853995145004516 -0.17968791755490268 -6.6896900538542505 5 1 0
2507 560 1 -1.1128 2.2249452137025916 6.003849667410001 -5.447654706942654 -3 0 0
2218 463 2 0.5564 -1.1905079529102711 0.3198140265826012 -3.616954195718913 -1 0 0
2127 433 2 0.5564 4.565563082477247 4.515192481161787 -2.811056738872719 3 4 0
2398 523 2 0.5564 -1.2404978458253306 1.2035545211662708 -8.021801044587221 -1 -1 0
1383 185 2 0.5564 10.777506478649393 0.5584894627597381 -8.214452578883645 0 1 0
2905 692 2 0.5564 0.014931723112544856 4.750438964340502 -7.9054099024056965 1 0 0
1793 322 1 -1.1128 7.9483485011216 0.7985436711113671 -0.24941183874257342 1 2 0
1757 310 1 -1.1128 12.85515340222531 7.4947285338967 -9.385609134776184 -1 -1 0
1240 137 2 0.5564 -0.3544061797840936 1.3038093495924084 -5.433000175099083 -4 4 0
1189 120 2 0.5564 9.368223225359062 3.8595358992124833 -5.832495869112988 4 0 0
1952 375 1 -1.1128 13.509802483632189 0.15323413509834427 -9.657428922866146 -2 -2 0
2070 414 2 0.5564 11.389401231237182 7.239575720870332 -1.29106125995679 -1 1 0
1756 309 2 0.5564 7.637735877033848 7.104818261175832 -2.494749779407329 2 1 0
1220 131 1 -1.1128 7.338105408996556 2.8991110353508582 -1.9250737908838695 -1 -2 0
1902 358 2 0.5564 13.649520904714178 0.09195432436872202 -4.447540658289873 -2 3 0
924 32 2 0.5564 -1.1905856579072425 4.512102700788655 -4.010395010177478 4 3 0
2544 572 2 0.5564 6.406409396781738 6.530388189393788 -4.177350728939459 -2 -4 0
1794 322 2 0.5564 7.831537950468891 1.269417647552457 -1.0745578163446692 1 2 0
934 35 2 0.5564 8.958107901078652 5.236049838967387 -4.449258148910322 -1 -3 0
834 2 2 0.5564 7.030104133716151 0.07529246147159431 -4.809870347252216 -2 -1 0
2896 689 2 0.5564 -1.1319686131494626 5.965604543890136 -0.173918229782833 -1 0 0
2545 572 2 0.5564 6.458459625399084 5.186079802248524 -3.4830716199632237 -2 -4 0
1759 310 2 0.5564 12.257823136270975 6.850227971118897 -9.765152038767477 -1 -1 0
2200 457 2 0.5564 10.842408039440443 -0.4745925789867139 -5.856148918810648 1 -3 0
2306 493 1 -1.1128 6.766984461857332 0.5038283514945049 -7.354120306098854 5 1 0
2396 523 1 -1.1128 -1.4786243619356982 1.1416591902730748 -7.096762172106883 -1 -1 0
933 35 2 0.5564 10.470029421046222 5.1760676363834195 -4.400351234907206 -1 -3 0
3145 772 2 0.5564 9.40113564578423 0.45945490906443665 -9.42803309773123 3 3 0
853 8 2 0.5564 10.940066996379276 2.047160865354299 -6.002960894517178 1 2 0
2866 679 2 0.5564 11.862459826043864 2.5555278722177515 -4.361007349119571 0 1 0
2605 592 2 0.5564 3.84432416792702 7.606548108583629 -10.082393985075482 2 -3 0
1523 232 1 -1.1128 9.745890338398146 3.9166571978529423 -2.611279537671251 4 -1 0
851 8 1 -1.1128 11.849985350427135 1.7543557220446322 -5.952499030842141 1 2 0
2373 515 2 0.5564 13.176305394411035 3.5998126591626654 -7.861498000257501 -1 1 0
932 35 1 -1.1128 9.741604236604989 5.477281342215137 -4.943398402430262 -1 -3 0
2412 528 2 0.5564 7.972743218324274 2.2513798401549407 -3.8287768658602697 2 1 0
2411 528 1 -1.1128 7.612034090823487 1.6640209404487265 -4.492953981335514 2 1 0
1222 131 2 0.5564 6.510935687234959 3.2100760245026554 -2.292950736086085 -1 -2 0
2764 645 2 0.5564 9.861670346187111 7.06184796629768 -5.691987828227549 0 3 0
1188 120 2 0.5564 9.504500733966882 3.0874457211950697 -7.127565195015823 4 0 0
1187 120 1 -1.1128 9.314272837994073 2.9757400500169933 -6.196128863854049 4 0 0
852 8 2 0.5564 12.361480939594077 2.509109942905021 -6.243962714140013 1 2 0
2413 528 2 0.5564 8.066027078092059 1.9066623314698072 -5.299955449356996 2 1 0
2348 507 1 -1.1128 12.540165581668846 5.849783453497287 -3.561562350080421 1 0 0
2454 542 2 0.5564 5.017267396668858 -0.5397532436675425 -4.787077862111004 3 0 0
2307 493 2 0.5564 7.3955974174123185 0.25960677237668567 -8.033412947638222 5 1 0
2865 679 2 0.5564 12.571744174497711 2.642072942166215 -3.026343112272576 0 1 0
3144 772 2 0.5564 8.566200150506655 -0.5843483247789424 -10.138847818037895 3 3 0
1525 232 2 0.5564 10.56347083255515 3.5556125718887 -2.9539804461757697 4 -1 0
2543 572 1 -1.1128 6.9425720292005515 6.0057978636396605 -3.582734902806943 -2 -4 0
2349 507 2 0.5564 12.775296727024832 6.111919754755759 -4.4516353721262 1 0 0
2231 468 1 -1.1128 11.200139618111306 0.5252690020222475 -0.6564292466456544 -3 2 0
2453 542 1 -1.1128 4.081318854435338 -0.3711378870830578 -4.895718320326005 3 0 0
1572 248 2 0.5564 9.589866493090543 6.901719396035653 -0.9538788320150241 3 -1 0
923 32 1 -1.1128 -1.4629445527819394 5.0417051208139885 -4.75978085558298 4 3 0
3208 793 2 0.5564 13.839342476758237 6.79999112458728 -1.3420387750143215 -2 1 0
927 33 2 0.5564 -0.7243830337822105 7.341624532574555 -2.1666598868558995 0 0 0
1954 375 2 0.5564 13.31068592298002 -0.15647180445698297 -8.773875248168096 -2 -2 0
2034 402 2 0.5564 1.130643321795067 7.478021349823668 -5.994016579436303 0 -2 0
2352 508 2 0.5564 5.208375844426641 6.99990239317196 -5.927634115406833 -1 3 0
2328 500 2 0.5564 -1.0861291494886027 -0.43115127877976633 -9.417439620078781 0 0 0
1372 181 2 0.5564 8.931878570168541 7.655782723861807 -8.879201811475507 3 -2 0
3099 757 2 0.5564 7.018193735327533 4.2604083840213605 -0.2028205444412523 3 -3 0
2564 579 1 -1.1128 11.051743054676644 -0.5725941048441487 -3.744655993667671 -3 1 0
1571 248 1 -1.1128 10.15144730314137 6.498738238791778 -0.2917085863780231 3 -1 0
2374 515 2 0.5564 14.122216444807547 2.963034926628304 -6.865675531271537 -1 1 0
2198 457 1 -1.1128 10.308300635862054 -0.6216387530262317 -6.636753064086914 1 -3 0
920 31 1 -1.1128 12.895987844817345 7.73238540748459 -6.7657420590561115 -3 -3 0
987 53 2 0.5564 -1.5111163254169244 2.957134643130984 -2.472913078476233 0 -4 0
1754 309 1 -1.1128 8.06015560996526 7.78758013051959 -1.973566898787818 2 1 0
2199 457 2 0.5564 9.412584564814097 -0.6876078214878518 -6.305732435066656 1 -3 0
2813 662 1 -1.1128 4.703220202641684 7.699704386723027 0.39991218439268794 2 -2 0
1514 229 1 -1.1128 5.287566478493617 7.114176284983894 4.552014387059619 1 -1 0
3082 751 2 0.5564 4.772743572947826 3.4445472749419963 5.339121381850725 3 3 0
3080 751 1 -1.1128 5.3668108425662275 3.1051953540030426 4.66967625793987 3 3 0
3081 751 2 0.5564 5.198870812075625 3.650465041995018 3.9010972503961603 3 3 0
3022 731 2 0.5564 2.4162489957045725 2.6722954223340865 3.5167878359178815 3 2 0
1440 204 2 0.5564 -0.8982279791385808 5.539699803282479 2.317882835027251 0 -1 0
3020 731 1 -1.1128 2.610849414901165 1.747336181911994 3.6678397947241788 3 2 0
3211 794 2 0.5564 4.076996953765505 3.6838455916921444 7.561423983030349 -1 -3 0
3209 794 1 -1.1128 3.751895127955805 4.017690510474911 6.725306003815326 -1 -3 0
3210 794 2 0.5564 2.80590035702278 4.094945441216682 6.849236869686389 -1 -3 0
1071 81 2 0.5564 0.03293444604101556 5.341530461470443 6.191872544563838 -1 -1 0
2930 701 1 -1.1128 11.987327949816942 3.6589787441675417 9.55029522948368 -6 -1 0
1070 81 1 -1.1128 0.4990635627696014 4.571616048639711 6.517739537617894 -1 -1 0
1248 140 2 0.5564 0.7706266485438741 1.5765644978910727 5.334535565899765 -3 1 0
2994 722 2 0.5564 -0.5538167021879289 0.5195913662672438 6.537148115774245 6 0 0
3098 757 1 -1.1128 6.7663262042059475 4.96795780591707 0.3906188925061344 3 -3 0
3021 731 2 0.5564 3.5547014739100002 1.723280974232624 3.825336316236631 3 2 0
1801 324 2 0.5564 2.084517421944161 4.715142539132868 4.524207587557468 2 -1 0
1439 204 1 -1.1128 -0.5352130179744073 5.492629360299934 1.4334400745799596 0 -1 0
1800 324 2 0.5564 3.0891795860246107 4.863131629243189 3.4014201256518475 2 -1 0
2738 637 1 -1.1128 5.244487699261432 0.8760002284276468 0.31153773837538057 -2 0 0
2765 646 1 -1.1128 7.51142368643153 5.637245506412852 9.841057908527565 0 -1 0
2995 722 2 0.5564 -0.3880646557885498 -0.4692308264069475 7.671460569923396 6 0 0
2986 719 2 0.5564 7.315521863110747 4.747561771320417 6.339901775069734 -1 2 0
957 43 2 0.5564 13.748530452411044 7.151222450544092 5.883117187886809 -3 -1 0
2728 633 2 0.5564 5.67494114823753 1.4027879522948266 3.7498907380748596 -1 0 0
1536 236 2 0.5564 6.250336885333459 7.107920232683124 7.545782904417531 4 0 0
1799 324 1 -1.1128 2.27451011306405 4.417857933299517 3.634399629005676 2 -1 0
2296 489 2 0.5564 5.2583016262618605 5.8069346627092395 3.1213084644613596 0 1 0
2295 489 2 0.5564 5.583332131961857 4.9645613294868065 1.9061268545172705 0 1 0
2294 489 1 -1.1128 5.026657781690742 4.987327616402788 2.684478407784515 0 1 0
2029 400 2 0.5564 3.8731141277668657 6.085045996040138 6.929261823971792 1 -2 0
1441 204 2 0.5564 0.20008828443171078 6.105393087827673 1.442900599418473 0 -1 0
1247 140 1 -1.1128 -0.08178817042168961 1.9145394050699116 5.6091159530978585 -3 1 0
489 2 4 0 12.2802 4.254 12.736959109302104 0 0 0
2028 400 2 0.5564 4.207808246615036 7.357561214019842 6.180542014580033 1 -2 0
1996 389 2 0.5564 14.031592025043087 3.2941939978950106 5.820770935776932 4 -1 0
2991 721 2 0.5564 -0.9088390374783747 -0.5351817565475042 3.432110702806768 -2 -1 0
1249 140 2 0.5564 0.11327856392079806 2.7630478462026904 6.006881899596024 -3 1 0
432 2 4 0 7.36814 2.836 12.736959109302104 0 0 0
2027 400 1 -1.1128 3.6145281564612994 7.002568290801318 6.842534288999489 1 -2 0
3204 792 2 0.5564 14.002461354460783 0.9532952735723331 7.008353989470497 0 4 0
2976 716 2 0.5564 1.8262383710634422 7.431299009888294 6.611453652290836 -2 1 0
2219 464 1 -1.1128 -0.5593769761630484 2.9897663947495188 2.8778378584319024 4 0 0
2256 476 2 0.5564 9.930675518988483 7.535610712062364 8.33972039612009 -5 1 0
442 2 4 0 13.5083 0.709 12.736959109302104 0 0 0
2220 464 2 0.5564 -0.15207984964940452 2.706766772117816 3.6965290106375575 4 0 0
1993 388 2 0.5564 13.195253208752598 5.6188059239257315 0.4940619333673121 -3 5 0
2727 633 2 0.5564 5.554784001807939 0.7580536789707895 2.385421074102152 -1 0 0
2537 570 1 -1.1128 1.5072755791775665 0.11353768379376167 0.3081326320161516 -4 0 0
2984 719 1 -1.1128 7.727003581817362 4.235057402681485 5.644016642738055 -1 2 0
2985 719 2 0.5564 7.013424736609601 3.7142131739179365 5.275559097441828 -1 2 0
2987 720 1 -1.1128 10.756478215301666 1.3077655282850051 9.063140181330574 1 -1 0
1844 339 1 -1.1128 8.517166411773179 4.918186488456164 2.5791263141890943 1 -4 0
1845 339 2 0.5564 8.098128901238491 4.9350814648982 3.4395656441207074 1 -4 0
490 2 4 0 11.0522 4.963 12.736959109302104 0 0 0
3100 757 2 0.5564 7.453251935342376 4.9781060813118785 1.0571523177470972 3 -3 0
2538 570 2 0.5564 1.8047192725674652 -0.4579847083599531 1.0160368450611674 -4 0 0
895 22 2 0.5564 13.319393658954606 2.9679592885030006 2.5375019916966406 -1 -3 0
433 2 4 0 9.82419 0 12.736959109302104 0 0 0
1960 377 2 0.5564 9.16839183694055 6.25046740769183 5.9921568448187355 1 -1 0
1575 249 2 0.5564 2.781951151013768 -0.25708467588841344 7.22005143301886 -1 0 0
1846 339 2 0.5564 9.146697191537497 4.1991326805703535 2.632856070266144 1 -4 0
894 22 2 0.5564 13.08087981086929 1.5908868905884739 1.9555383220797684 -1 -3 0
2255 476 1 -1.1128 9.674558983529726 7.460104587384851 9.258924741685517 -5 1 0
2539 570 2 0.5564 0.6202312029050024 -0.18838218405531226 0.1125959522556263 -4 0 0
1642 271 2 0.5564 13.279154231105654 1.6718167722230268 4.693077309922013 0 -3 0
1992 388 2 0.5564 11.733291843133381 5.430619619923085 0.14887283467611545 -3 5 0
1959 377 2 0.5564 10.558544952386162 6.848754731315592 6.029871546358949 1 -1 0
958 43 2 0.5564 12.583908396261958 6.388063188698562 5.288860603005577 -3 -1 0
1641 271 2 0.5564 12.230656398790437 1.9035521332310232 5.760245123442443 0 -3 0
1500 224 2 0.5564 9.519413117300793 -0.3911207842849608 2.4329872215802073 -2 2 0
1499 224 1 -1.1128 9.812850407207616 0.26014239030649927 1.7958184475108667 -2 2 0
1501 224 2 0.5564 9.213271010512313 0.1596638045627837 1.0564661375846567 -2 2 0
2739 637 2 0.5564 4.481698847082411 1.4525922898397847 0.26762654423803267 -2 0 0
2268 480 2 0.5564 10.663464094109846 3.8643693908483123 6.719604431905725 1 1 0
2269 480 2 0.5564 11.284611025012099 4.329378990237552 8.019543105301308 1 1 0
1971 381 2 0.5564 10.911938221365212 2.5494873992208245 3.0685555159838 -2 4 0
1970 381 1 -1.1128 10.010820969643753 2.383755674402721 3.3455994808108516 -2 4 0
1972 381 2 0.5564 9.743200234028206 1.6138580898485926 2.843732702552551 -2 4 0
2822 665 1 -1.1128 10.272492081871833 1.573971206386823 6.089172852823901 0 3 0
2726 633 1 -1.1128 5.705072752513399 0.5539860774137739 3.30846107398116 -1 0 0
3012 728 2 0.5564 4.545086647086268 -0.6447399148543058 3.837151879602493 2 -3 0
2267 480 1 -1.1128 10.578336136712112 4.527516194812859 7.404601909511288 1 1 0
2019 397 2 0.5564 10.685838632039504 3.3047269848670693 0.5016815046210694 -1 2 0
2993 722 1 -1.1128 -0.4482246183580342 -0.41447716699267934 6.717718331100507 6 0 0
1991 388 1 -1.1128 12.432720798251633 5.077646368194438 0.6988199507369929 -3 5 0
956 43 1 -1.1128 12.791928227054761 7.130111971831758 5.856599661212673 -3 -1 0
1829 334 1 -1.1128 12.126619202430575 5.814369070405003 3.491315529156642 -1 1 0
1749 307 2 0.5564 3.2223932306203404 3.5745877716164953 0.8796853003065356 1 -3 0
1830 334 2 0.5564 12.349010591111718 5.530449321766666 2.604654557696215 -1 1 0
2233 468 2 0.5564 11.216339549709799 0.3801440700881704 0.28956745738238027 -3 2 0
2367 513 2 0.5564 6.860194387727658 -0.4003162255989647 6.8655567460077105 0 -3 0
1640 271 1 -1.1128 13.173283996860235 1.7920041742329953 5.636782092487781 0 -3 0
1288 153 2 0.5564 -0.40904679326019483 -0.044253795214389775 9.805097434675755 1 3 0
1573 248 2 0.5564 9.562332775386599 5.939097469546595 0.21423820698504145 3 -1 0
2989 720 2 0.5564 10.479591016940853 1.3994448036995997 8.15145962874255 1 -1 0
440 2 4 0 12.2802 2.836 12.736959109302104 0 0 0
1831 334 2 0.5564 11.465131466597832 6.494889629780809 3.3665688982542776 -1 1 0
1086 86 2 0.5564 6.317855757029045 1.8240418021680058 6.7563391023037545 4 1 0
2988 720 2 0.5564 10.968823454341607 0.37917087641476865 9.157237370893272 1 -1 0
843 5 2 0.5564 9.270764829875452 3.7221945417572653 8.32174633015259 0 0 0
893 22 1 -1.1128 12.621749948834989 2.3587096884655234 2.2959565105122937 -1 -3 0
2814 662 2 0.5564 5.394154088053253 7.055033779101896 0.5523687006166632 2 -2 0
1729 300 2 0.5564 12.343593939157964 5.554741403069498 9.74364289864943 2 -2 0
1958 377 1 -1.1128 9.631746536594596 7.08769634369365 6.016295241235639 1 -1 0
2221 464 2 0.5564 0.03865263101558651 3.6502472667048935 2.528039422499628 4 0 0
2874 682 2 0.5564 13.475428972521911 7.250051093446025 3.2782283569786546 -2 1 0
1728 300 2 0.5564 13.395922485503696 6.596183453871047 9.427566807915426 2 -2 0
429 2 4 0 7.36814 0 12.736959109302104 0 0 0
3128 767 1 -1.1128 2.833061091496848 0.5344120889314279 9.220264614620252 1 -5 0
1751 308 1 -1.1128 -0.3397466118852052 6.55028088252056 9.211359519391571 0 2 0
2823 665 2 0.5564 10.136870482411696 0.6422907941924779 5.9165136292979215 0 3 0
2824 665 2 0.5564 9.939046277240429 2.0139806393842394 5.307227941931442 0 3 0
1753 308 2 0.5564 -1.292896241467075 6.539970319659267 9.123999374182238 0 2 0
1748 307 1 -1.1128 2.965189620440528 2.7322534135439067 0.5047813924709221 1 -3 0
2767 646 2 0.5564 7.929183051252514 4.907781635205146 9.383244532398841 0 -1 0
487 2 4 0 8.59617 6.381 12.736959109302104 0 0 0
1752 308 2 0.5564 -0.022261395792149342 6.80947515573962 8.346342753282626 0 2 0
2084 419 1 -1.1128 0.10062356873667538 1.8612475345318371 9.3794144059241 -1 -1 0
1535 236 1 -1.1128 6.570665664606146 6.215021740990589 7.417900416005278 4 0 0
3129 767 2 0.5564 3.5068985330963414 1.2025235675421821 9.34598873302933 1 -5 0
2085 419 2 0.5564 0.45291879015131764 2.749416425480283 9.322136031781104 -1 -1 0
1537 236 2 0.5564 6.796547826869718 5.912795914569654 8.297598892601956 4 0 0
2086 419 2 0.5564 -0.8491467627841148 1.977767384075236 9.355083173213355 -1 -1 0
3227 800 1 -1.1128 4.313011622413829 2.9311617372440004 9.171038080292433 0 1 0
1158 110 2 0.5564 0.9850546336376278 5.088526292679558 9.566300678812697 1 -1 0
1159 110 2 0.5564 2.2768496351045333 4.556733845798527 8.982892973874565 1 -1 0
1157 110 1 -1.1128 1.3636085516739314 4.318365595957147 9.142287283716172 1 -1 0
1730 301 1 -1.1128 4.2246483005886954 5.5763403575679975 9.539741129301092 0 -1 0
482 2 4 0 6.14012 4.963 12.736959109302104 0 0 0
480 2 4 0 4.9121 7.09 12.736959109302104 0 0 0
483 2 4 0 6.14012 6.381 12.736959109302104 0 0 0
417 2 4 0 0 0 12.736959109302104 0 0 0
418 2 4 0 -1.22802 0.709 12.736959109302104 0 0 0
419 2 4 0 -1.22802 2.127 12.736959109302104 0 0 0
420 2 4 0 0 2.836 12.736959109302104 0 0 0
421 2 4 0 2.45605 0 12.736959109302104 0 0 0
422 2 4 0 1.22802 0.709 12.736959109302104 0 0 0
423 2 4 0 1.22802 2.127 12.736959109302104 0 0 0
424 2 4 0 2.45605 2.836 12.736959109302104 0 0 0
425 2 4 0 4.9121 0 12.736959109302104 0 0 0
426 2 4 0 3.68407 0.709 12.736959109302104 0 0 0
427 2 4 0 3.68407 2.127 12.736959109302104 0 0 0
428 2 4 0 4.9121 2.836 12.736959109302104 0 0 0
430 2 4 0 6.14012 0.709 12.736959109302104 0 0 0
431 2 4 0 6.14012 2.127 12.736959109302104 0 0 0
469 2 4 0 0 4.254 12.736959109302104 0 0 0
470 2 4 0 -1.22802 4.963 12.736959109302104 0 0 0
471 2 4 0 -1.22802 6.381 12.736959109302104 0 0 0
472 2 4 0 0 7.09 12.736959109302104 0 0 0
473 2 4 0 2.45605 4.254 12.736959109302104 0 0 0
474 2 4 0 1.22802 4.963 12.736959109302104 0 0 0
475 2 4 0 1.22802 6.381 12.736959109302104 0 0 0
476 2 4 0 2.45605 7.09 12.736959109302104 0 0 0
477 2 4 0 4.9121 4.254 12.736959109302104 0 0 0
478 2 4 0 3.68407 4.963 12.736959109302104 0 0 0
479 2 4 0 3.68407 6.381 12.736959109302104 0 0 0
1731 301 2 0.5564 5.072543043588835 5.9645304962889 9.323830124519334 0 -1 0
1750 307 2 0.5564 2.5716533686899297 2.2546802866232705 1.2350470600902907 1 -3 0
3228 800 2 0.5564 5.217037267970852 2.618609870440622 9.206858843228465 0 1 0
3130 767 2 0.5564 2.007752246620135 1.0187711464160132 9.242572409580047 1 -5 0
1072 81 2 0.5564 0.5252604884314699 4.690935604347524 7.467113483771119 -1 -1 0
1516 229 2 0.5564 6.178145721019769 7.050274198635071 4.897003026319158 1 -1 0
1727 300 1 -1.1128 12.44996447872501 6.477729142344108 9.51339851191788 2 -2 0
434 2 4 0 8.59617 0.709 12.736959109302104 0 0 0
1085 86 1 -1.1128 6.4883838177846975 1.8729080253400123 7.696958487593769 4 1 0
2257 476 2 0.5564 10.481450013336048 7.21881954282012 9.713833607492328 -5 1 0
481 2 4 0 7.36814 4.254 12.736959109302104 0 0 0
2932 701 2 0.5564 11.746782272329321 2.7326807646795928 9.531719579184793 -6 -1 0
485 2 4 0 9.82419 4.254 12.736959109302104 0 0 0
2975 716 1 -1.1128 0.9101213231908369 7.694825869322759 6.524760961935873 -2 1 0
1087 86 2 0.5564 7.253532815368256 2.4430189651623593 7.772840747995521 4 1 0
438 2 4 0 11.0522 0.709 12.736959109302104 0 0 0
2766 646 2 0.5564 8.144230510935197 6.352837060185298 9.780069085253967 0 -1 0
3229 800 2 0.5564 4.3283428005405105 3.764428097876033 9.641855460140397 0 1 0
1732 301 2 0.5564 3.6927007755417973 6.313377766296199 9.83981308755415 0 -1 0
437 2 4 0 12.2802 0 12.736959109302104 0 0 0
2931 701 2 0.5564 12.944527440474642 3.6583660740878217 9.552048006270562 -6 -1 0
439 2 4 0 11.0522 2.127 12.736959109302104 0 0 0
492 2 4 0 12.2802 7.09 12.736959109302104 0 0 0
436 2 4 0 9.82419 2.836 12.736959109302104 0 0 0
435 2 4 0 8.59617 2.127 12.736959109302104 0 0 0
443 2 4 0 13.5083 2.127 12.736959109302104 0 0 0
494 2 4 0 13.5083 4.963 12.736959109302104 0 0 0
484 2 4 0 7.36814 7.09 12.736959109302104 0 0 0
491 2 4 0 11.0522 6.381 12.736959109302104 0 0 0
488 2 4 0 9.82419 7.09 12.736959109302104 0 0 0
842 5 1 -1.1128 8.420116891890302 3.438115415773316 8.65631695226375 0 0 0
486 2 4 0 8.59617 4.963 12.736959109302104 0 0 0
844 5 2 0.5564 8.625067388190695 2.717648365265493 9.252267293031197 0 0 0
495 2 4 0 13.5083 6.381 12.736959109302104 0 0 0
2359 510 2 0.5564 -1.5665785029661312 1.2172745354627283 2.611607143912877 2 0 0
1436 203 1 -1.1128 2.4216948361749138 7.654427399921646 9.525203124382749 -1 3 0
1438 203 2 0.5564 2.658681678871147 7.434459845935954 8.624267420646515 -1 3 0
1576 249 2 0.5564 1.3832680093803305 -0.6964382025734361 6.842491922193631 -1 0 0
1795 322 2 0.5564 7.064899385641759 0.7237383602776475 0.11135734767369283 1 2 0