LAMMPS data file via write_data, version 2 Aug 2023, timestep = 5750000, units = real

4432 atoms
4 atom types
2400 bonds
1 bond types
1200 angles
1 angle types
0 impropers
1 improper types

-1.8420299999999998 30.08661 xlo xhi
-0.709 33.323 ylo yhi
-150 150 zlo zhi

Masses

1 15.9994
2 1.00794
3 12.0107
4 12.0107

Pair Coeffs # lj/cut/tip4p/long

1 0.1852 3.1589
2 0 0
3 0.0859 3.3997
4 0.0859 3.3997

Bond Coeffs # harmonic

1 5000 0.9572

Angle Coeffs # harmonic

1 500 104.52

Atoms # full

1 1 3 0 0 0 -16.168203030381882 0 0 0
2 1 3 0 -1.22802 0.709 -16.168203030381882 0 0 0
3 1 3 0 -1.22802 2.127 -16.168203030381882 0 0 0
4 1 3 0 0 2.836 -16.168203030381882 0 0 0
5 1 3 0 2.45605 0 -16.168203030381882 0 0 0
6 1 3 0 1.22802 0.709 -16.168203030381882 0 0 0
7 1 3 0 1.22802 2.127 -16.168203030381882 0 0 0
8 1 3 0 2.45605 2.836 -16.168203030381882 0 0 0
9 1 3 0 4.9121 0 -16.168203030381882 0 0 0
10 1 3 0 3.68407 0.709 -16.168203030381882 0 0 0
11 1 3 0 3.68407 2.127 -16.168203030381882 0 0 0
12 1 3 0 4.9121 2.836 -16.168203030381882 0 0 0
14 1 3 0 6.14012 0.709 -16.168203030381882 0 0 0
15 1 3 0 6.14012 2.127 -16.168203030381882 0 0 0
53 1 3 0 0 4.254 -16.168203030381882 0 0 0
54 1 3 0 -1.22802 4.963 -16.168203030381882 0 0 0
55 1 3 0 -1.22802 6.381 -16.168203030381882 0 0 0
56 1 3 0 0 7.09 -16.168203030381882 0 0 0
57 1 3 0 2.45605 4.254 -16.168203030381882 0 0 0
58 1 3 0 1.22802 4.963 -16.168203030381882 0 0 0
59 1 3 0 1.22802 6.381 -16.168203030381882 0 0 0
60 1 3 0 2.45605 7.09 -16.168203030381882 0 0 0
61 1 3 0 4.9121 4.254 -16.168203030381882 0 0 0
62 1 3 0 3.68407 4.963 -16.168203030381882 0 0 0
63 1 3 0 3.68407 6.381 -16.168203030381882 0 0 0
64 1 3 0 4.9121 7.09 -16.168203030381882 0 0 0
66 1 3 0 6.14012 4.963 -16.168203030381882 0 0 0
67 1 3 0 6.14012 6.381 -16.168203030381882 0 0 0
13 1 3 0 7.36814 0 -16.168203030381882 0 0 0
16 1 3 0 7.36814 2.836 -16.168203030381882 0 0 0
17 1 3 0 9.82419 0 -16.168203030381882 0 0 0
18 1 3 0 8.59617 0.709 -16.168203030381882 0 0 0
19 1 3 0 8.59617 2.127 -16.168203030381882 0 0 0
20 1 3 0 9.82419 2.836 -16.168203030381882 0 0 0
21 1 3 0 12.2802 0 -16.168203030381882 0 0 0
22 1 3 0 11.0522 0.709 -16.168203030381882 0 0 0
23 1 3 0 11.0522 2.127 -16.168203030381882 0 0 0
24 1 3 0 12.2802 2.836 -16.168203030381882 0 0 0
26 1 3 0 13.5083 0.709 -16.168203030381882 0 0 0
27 1 3 0 13.5083 2.127 -16.168203030381882 0 0 0
65 1 3 0 7.36814 4.254 -16.168203030381882 0 0 0
68 1 3 0 7.36814 7.09 -16.168203030381882 0 0 0
69 1 3 0 9.82419 4.254 -16.168203030381882 0 0 0
70 1 3 0 8.59617 4.963 -16.168203030381882 0 0 0
71 1 3 0 8.59617 6.381 -16.168203030381882 0 0 0
72 1 3 0 9.82419 7.09 -16.168203030381882 0 0 0
73 1 3 0 12.2802 4.254 -16.168203030381882 0 0 0
74 1 3 0 11.0522 4.963 -16.168203030381882 0 0 0
75 1 3 0 11.0522 6.381 -16.168203030381882 0 0 0
76 1 3 0 12.2802 7.09 -16.168203030381882 0 0 0
78 1 3 0 13.5083 4.963 -16.168203030381882 0 0 0
79 1 3 0 13.5083 6.381 -16.168203030381882 0 0 0
1175 116 1 -1.1128 11.60116763162622 6.407025003703933 -5.272085764717792 0 4 0
1546 239 2 0.5564 0.9896203188086004 -0.5366636589721783 -5.7172553408747095 -1 0 0
1925 366 1 -1.1128 11.167086232602875 4.096794677339541 -0.1316669114286878 -1 1 0
2684 619 1 -1.1128 3.054495328301514 4.879673404612169 -10.031919611766774 2 3 0
2082 418 2 0.5564 -0.6387310504530374 3.145929917443117 -13.051991132521387 2 1 0
1367 180 1 -1.1128 1.5670584463676116 6.2727505212184935 -12.641267170842795 5 5 0
1369 180 2 0.5564 1.4333410983492847 5.967949123581294 -11.743798349166559 5 5 0
1368 180 2 0.5564 0.7410216344965802 6.081208125934255 -13.08535069173863 5 5 0
2685 619 2 0.5564 2.523211917924987 4.241051767621131 -10.507454952305837 2 3 0
2794 655 2 0.5564 1.110518714205902 3.409958614609446 -12.386322783010792 -1 3 0
2686 619 2 0.5564 3.9387180474014096 4.51331483446072 -10.044731997684213 2 3 0
2792 655 1 -1.1128 1.7592706566305465 2.956613557565814 -11.84795961926267 -1 3 0
3305 826 1 -1.1128 4.1939681571773235 5.030410848086093 -13.15227264635121 4 2 0
4366 1179 2 0.5564 1.8647796673206911 0.6899866440187858 -8.903996222764881 -2 0 0
3306 826 2 0.5564 4.432260769291429 5.957219614147577 -13.130462177444917 4 2 0
1780 317 2 0.5564 4.677669895067834 0.8088846609418092 -2.176463081368214 3 -3 0
1133 102 1 -1.1128 3.592983279220499 -0.06532678297014444 -12.722653680532478 3 -2 0
2793 655 2 0.5564 2.260797797296735 2.4292439723586154 -12.469718365796544 -1 3 0
4364 1179 1 -1.1128 1.0687857373550937 0.6064850631566915 -9.429025850166882 -2 0 0
1823 332 1 -1.1128 5.271353574786779 2.2938441052510123 -12.622305501483623 -3 -1 0
4063 1078 2 0.5564 2.7617386652136013 5.877501561044561 -8.554435362392077 0 -1 0
2081 418 1 -1.1128 -0.4300048035342895 4.078267721550573 -13.110456044709629 2 1 0
1135 102 2 0.5564 4.188237763546643 0.6820488133774321 -12.664901540482647 3 -2 0
1778 317 1 -1.1128 4.243527893721936 0.29316249329317573 -1.4969146488445184 3 -3 0
3418 863 2 0.5564 4.346587998346247 0.14356356694892955 -10.563116240489789 0 1 0
1453 208 2 0.5564 9.036980885728541 0.5916352950414687 -5.441760656917087 -4 0 0
2898 690 2 0.5564 12.184743558666083 -0.002364911879824204 -0.13693422243715542 3 0 0
1825 332 2 0.5564 5.202221984113096 3.1625141817303732 -13.018369400086229 -3 -1 0
3307 826 2 0.5564 3.237380446510254 5.029310630089244 -13.186511333708587 4 2 0
1926 366 2 0.5564 10.354317888963978 3.744290146338154 -0.4941363701977989 -1 1 0
4365 1179 2 0.5564 0.8473375042477322 1.5049958526290739 -9.673715174345515 -2 0 0
4014 1062 2 0.5564 -1.6101914243658766 3.5486416847769258 -1.2786709386375592 3 -1 0
2764 645 2 0.5564 -0.12484654850691056 0.8989085973896056 -12.352241574202683 2 1 0
3692 955 1 -1.1128 9.858723699416533 6.810270428501784 -13.075510452778836 3 -4 0
2440 537 2 0.5564 13.945763791572157 -0.09801711552692413 -13.33031598119891 -2 2 0
1176 116 2 0.5564 10.908329124335067 6.599091166826423 -4.640168967444285 0 4 0
3491 888 1 -1.1128 6.405702066405329 6.50338328290525 -10.733048865353274 1 1 0
876 16 2 0.5564 7.594938459575221 -0.5326088430461202 -11.748827777188067 1 1 0
3571 914 2 0.5564 11.81236252506481 1.764636801376774 -6.808927516530865 1 5 0
2083 418 2 0.5564 -1.267653899114245 4.500190147057444 -13.301658171820515 2 1 0
1629 267 2 0.5564 -1.4764879450843267 6.464467022966833 -11.840576903497787 2 1 0
1342 171 2 0.5564 14.014502713858974 4.134516179377793 -7.371596657800465 3 -2 0
3461 878 1 -1.1128 10.649440002044278 -0.2119128174781835 -12.535315168991954 5 -2 0
2672 615 1 -1.1128 13.338663397742739 0.14231780819870044 -10.553804259277422 2 4 0
1115 96 1 -1.1128 -0.7355275053634545 4.189279970063373 -8.251238450060034 -1 -3 0
4154 1109 1 -1.1128 1.5640705458919648 1.2400489852038097 -0.82026318375468 0 1 0
1813 328 2 0.5564 9.73904827565087 7.156922490904659 -9.71661046397546 4 0 0
1206 126 2 0.5564 5.791089710803061 4.512495459337769 -10.156296326345187 2 1 0
1824 332 2 0.5564 6.102725101920665 1.9476665392077612 -12.946677539470986 -3 -1 0
1205 126 1 -1.1128 5.427887588358129 3.62690286658288 -10.149758949158867 2 1 0
853 8 2 0.5564 8.599261095733587 -0.07287788634846737 -9.446810175933672 1 3 0
1207 126 2 0.5564 5.398160087462021 3.372894197974586 -11.072163630767626 2 1 0
3040 737 2 0.5564 8.50920040341097 0.4332228462234624 -13.344734348945094 0 -6 0
1902 358 2 0.5564 11.464960953693724 5.621408072010344 -13.155610477055719 1 -3 0
1903 358 2 0.5564 12.695902588492771 5.9915747975221825 -12.355825474992848 1 -3 0
3499 890 2 0.5564 12.276946096374243 3.4070525879604134 -12.84173643828077 -1 1 0
3038 737 1 -1.1128 7.841709031932824 0.9059596220743393 -12.84753417293619 0 -6 0
3039 737 2 0.5564 8.327865172130029 1.5823561258306802 -12.375969322663613 0 -6 0
3497 890 1 -1.1128 12.310375457182152 2.460271424495535 -12.704909398699508 -1 1 0
3498 890 2 0.5564 11.442190083340297 2.149830251491425 -12.962034012900121 -1 1 0
907 26 2 0.5564 9.624376598575832 3.9296621653650363 -9.844982776231646 3 -3 0
1716 296 2 0.5564 -1.2443613047917488 1.0577734652022337 -1.7269656330884107 1 2 0
905 26 1 -1.1128 10.46818230103856 4.213961085375835 -10.196268527950064 3 -3 0
3462 878 2 0.5564 11.563415800584597 -0.3635691212347526 -12.775910109129766 5 -2 0
2230 467 2 0.5564 13.81620797376228 7.376464112152916 -10.277173007873055 -2 -3 0
1812 328 2 0.5564 10.1115553418419 6.945071587031527 -11.168596325206218 4 0 0
1630 267 2 0.5564 -1.746693588042064 7.540194264775578 -12.870964416583469 2 1 0
1811 328 1 -1.1128 10.491766559573215 7.030997516215542 -10.294359204479752 4 0 0
4410 1194 2 0.5564 -0.0701723895762377 7.146379130486125 -9.58372228769639 -2 3 0
1901 358 1 -1.1128 12.351197208178672 5.324334626890167 -12.94929314260161 1 -3 0
2674 615 2 0.5564 13.32118782032078 0.6584539536182205 -11.35973957590549 2 4 0
3693 955 2 0.5564 8.995381622512225 6.421844848341409 -13.21693955945902 3 -4 0
1714 295 2 0.5564 6.842525375370684 5.938617805587248 -13.841918202296606 0 -2 0
1193 122 1 -1.1128 6.608056701948908 6.980425835399816 -4.682640253752574 2 -1 0
1713 295 2 0.5564 7.160885362224878 5.992529240725516 -12.362850200179851 0 -2 0
2025 399 2 0.5564 9.768516299281035 3.8099692128116436 -11.837564979818413 1 -1 0
2024 399 1 -1.1128 9.286268780422775 3.5348302082261673 -12.61728934245244 1 -1 0
2026 399 2 0.5564 8.68826322888268 4.260075270563286 -12.797958925954335 1 -1 0
4409 1194 1 -1.1128 -0.08790094007865705 6.2340204177456835 -9.872719768779394 -2 3 0
852 8 2 0.5564 9.189143498508667 1.2692380136320653 -9.069099997633396 1 3 0
3570 914 2 0.5564 11.955757492236339 0.3470894069068952 -7.320683602030097 1 5 0
2626 599 2 0.5564 8.2323071579639 5.950385938225709 -7.733148982661406 3 1 0
2490 554 2 0.5564 12.329041943969283 -0.5279485349991563 -9.370582144438883 -2 0 0
2930 701 1 -1.1128 7.089088152155185 -0.555382987185937 -3.925358215031946 -4 1 0
2491 554 2 0.5564 10.8845530910787 -0.6889250411058473 -8.946983562935783 -2 0 0
3846 1006 2 0.5564 1.4361229082932183 4.126051226126553 -0.1306427571074822 -1 0 0
1712 295 1 -1.1128 7.445109849142329 5.591460206898074 -13.18418901908503 0 -2 0
851 8 1 -1.1128 9.370179765585167 0.3295755784510964 -9.046866887255415 1 3 0
2676 616 2 0.5564 7.227955749667967 3.180485772799591 -9.24171398008012 3 -1 0
1200 124 2 0.5564 -1.1517352429762084 2.397376280515226 -7.795445041477736 -1 -2 0
1199 124 1 -1.1128 -1.078630012953367 1.5861834861632014 -7.29259732792586 -1 -2 0
1545 239 2 0.5564 0.6075987248537917 0.6936730412637178 -6.512383037026871 -1 0 0
1452 208 2 0.5564 10.479789707386157 0.5954578809883203 -4.983300620624909 -4 0 0
3885 1019 2 0.5564 5.48612347188787 1.9671337221841487 -4.49953021957287 -2 -2 0
877 16 2 0.5564 6.744228584057124 -0.5398431096937647 -10.49657464739701 1 1 0
4061 1078 1 -1.1128 2.83143788131688 6.358947748855956 -7.730065679025781 0 -1 0
4062 1078 2 0.5564 1.976794649197068 6.247020485530716 -7.313784601624608 0 -1 0
1352 175 1 -1.1128 6.667149769246615 3.7133106521515065 -2.565630507804411 -2 -1 0
3493 888 2 0.5564 6.99905005800401 6.669899841153989 -10.00062546239554 1 1 0
1383 185 2 0.5564 4.266260936218429 7.475672434532614 -3.110860902063888 1 0 0
4046 1073 1 -1.1128 7.880294642566508 -0.45496150273666647 -6.812590571308382 3 -1 0
3535 902 2 0.5564 -0.1539228519140727 6.748522194610752 -6.193028628272984 -1 0 0
1353 175 2 0.5564 6.2693248081193556 2.9889429517839474 -3.048600092112075 -2 -1 0
3417 863 2 0.5564 4.751512361690228 0.12482939641898898 -9.104492742094537 0 1 0
3886 1019 2 0.5564 6.111377042592764 0.8567751012183694 -3.682182078495441 -2 -2 0
3463 878 2 0.5564 10.654236895215769 -0.18629015686486047 -11.57846964321465 5 -2 0
3796 989 2 0.5564 -0.8708839471159937 4.558729281985657 -3.1208681710452146 -3 1 0
4411 1194 2 0.5564 -0.5782971459736742 5.775623233798804 -9.190358134415714 -2 3 0
3533 902 1 -1.1128 0.291028724070041 5.905226500474714 -6.277312231190041 -1 0 0
1065 79 2 0.5564 8.832078900502529 0.1170553110642387 -0.30868638639110374 0 0 0
1340 171 1 -1.1128 13.464779076830528 4.585429111695492 -8.012466554077255 3 -2 0
2774 649 1 -1.1128 4.035289763836682 -0.01883420763795311 -6.91836328850023 1 4 0
3795 989 2 0.5564 0.46595149504035904 4.40367715167748 -3.814213303820658 -3 1 0
3794 989 1 -1.1128 -0.41114336650083866 4.767809961471883 -3.9339844378691007 -3 1 0
2762 645 1 -1.1128 -0.9376722936713932 1.3482746047381597 -12.583797580727213 2 1 0
4401 1191 2 0.5564 0.8502201621463342 -0.32523134930679953 -10.894054542519616 -2 1 0
2228 467 1 -1.1128 13.659706955990673 7.204720670579756 -11.20574565264269 -2 -3 0
3884 1019 1 -1.1128 5.498349409234786 1.5892922671247292 -3.6201440671086633 -2 -2 0
2776 649 2 0.5564 3.086470495350267 0.10748432948494618 -6.91409496666217 1 4 0
1195 122 2 0.5564 5.903578205152674 6.751297073541529 -4.076468150950078 2 -1 0
1717 296 2 0.5564 -0.7937480867675001 -0.3872994593639171 -1.7516335394445883 1 2 0
1332 168 2 0.5564 3.96145786073607 5.545224636431243 -6.568754398024975 2 0 0
1384 185 2 0.5564 4.077992676693371 6.259838094229873 -2.2287053542679978 1 0 0
1715 296 1 -1.1128 -0.6057316603392388 0.47082184585445125 -2.1317787947185765 1 2 0
1054 75 2 0.5564 2.7060445305798506 5.434504598694234 -3.4932967073791414 -1 -1 0
1053 75 2 0.5564 3.1665314759024885 4.284093748673762 -4.363010551753042 -1 -1 0
4155 1109 2 0.5564 0.8583100055703332 1.1949076976590842 -1.4653241445669491 0 1 0
1382 185 1 -1.1128 4.468031095893587 6.5415779278624795 -3.056186525677504 1 0 0
1052 75 1 -1.1128 2.477197638068649 4.5414403009282 -3.750781121476171 -1 -1 0
1779 317 2 0.5564 3.862152397299135 -0.4490749353433687 -1.9658201232491088 3 -3 0
4156 1109 2 0.5564 2.3652561341604725 1.2727330261063574 -1.3430143867201365 0 1 0
2461 544 2 0.5564 5.1460478586791725 3.2463761114690803 -6.129372929339273 1 0 0
2460 544 2 0.5564 5.169173218709348 1.7906814976599241 -6.544486663991515 1 0 0
2459 544 1 -1.1128 5.690252048143889 2.459468426931071 -6.100150560634566 1 0 0
3534 902 2 0.5564 0.1432628621226399 5.4708940035251405 -5.437220573480092 -1 0 0
1331 168 1 -1.1128 4.542823917686947 5.076856287067744 -5.9696862585786805 2 0 0
1333 168 2 0.5564 5.184414957554154 5.732482962845418 -5.69628168428903 2 0 0
1143 105 2 0.5564 -1.5786583999303958 1.186635340206061 -9.145157470423513 -2 1 0
1544 239 1 -1.1128 1.300991526245305 0.04117699386818256 -6.413949539663717 -1 0 0
1117 96 2 0.5564 -0.3402916361461094 4.742318765276155 -7.577317737806599 -1 -3 0
2624 599 1 -1.1128 8.50084465276645 6.645049191550692 -8.334450683579961 3 1 0
2931 701 2 0.5564 7.375390246292281 -0.3472970841429555 -4.814720441539435 -4 1 0
4047 1073 2 0.5564 8.389430220061998 -0.030667038449698782 -7.503233587279153 3 -1 0
2763 645 2 0.5564 -1.3822336565072846 1.486323860240103 -11.74741132263525 2 1 0
1651 274 2 0.5564 1.0041687854399794 7.771564542339419 -11.961703233564279 4 2 0
865 12 2 0.5564 13.812563715624508 0.5620749705121435 -5.7620715596164604 -3 3 0
906 26 2 0.5564 10.45519075475283 5.167175575243384 -10.109961226150874 3 -3 0
3769 980 2 0.5564 11.120756106583109 6.71363905556354 -1.9001226154231683 -3 -1 0
3767 980 1 -1.1128 10.699694864183273 7.455042653881245 -2.335163498169698 -3 -1 0
1341 171 2 0.5564 12.569644832735824 4.348970796858162 -7.769453929602527 3 -2 0
1140 104 2 0.5564 8.435994362407497 -0.3319875205753777 -2.579863827646434 -3 3 0
4293 1155 2 0.5564 13.374601162658054 1.476913464682683 -2.341294562299983 0 1 0
2962 711 2 0.5564 13.960490922939846 4.760519545679528 -12.387893242738912 -7 3 0
3569 914 1 -1.1128 12.277676456583915 0.9442801265331568 -6.645431922958335 1 5 0
2388 520 2 0.5564 -1.710910290532088 0.15851221883154126 -3.512500122851992 2 -1 0
1194 122 2 0.5564 7.293921860646292 6.335938983252175 -4.508116406006336 2 -1 0
4292 1155 1 -1.1128 12.590838892674915 1.0086533823767 -2.053748288697849 0 1 0
2239 470 2 0.5564 7.441916771411105 3.514204357461879 -6.349751252548714 4 4 0
1125 99 2 0.5564 10.562048780093948 3.2512426905133314 -2.8754468041301697 0 1 0
3054 742 2 0.5564 12.964170393365995 5.115062574648531 -4.8104340586755425 -3 6 0
2675 616 1 -1.1128 8.146126282193734 2.9928679436197316 -9.046789896534811 3 -1 0
3055 742 2 0.5564 12.51405538842521 3.719294145408599 -4.43477103664455 -3 6 0
3053 742 1 -1.1128 13.292852412385033 4.2290834084342235 -4.657981942905425 -3 6 0
1126 99 2 0.5564 10.343492569232799 2.8474879497127414 -4.318052325435187 0 1 0
2625 599 2 0.5564 8.444467237709938 7.447106907541847 -7.815066781393563 3 1 0
1781 318 1 -1.1128 8.66675525030866 5.008859988932581 -4.113999336882878 -1 -1 0
1124 99 1 -1.1128 10.819561428555604 3.471870591043118 -3.7705690211576615 0 1 0
1354 175 2 0.5564 6.0665465646553605 3.8752134779016356 -1.8381033457505274 -2 -1 0
1783 318 2 0.5564 8.140046123039266 4.712718734650561 -3.371630556659152 -1 -1 0
3694 955 2 0.5564 9.736925929145277 7.740872544146155 -13.263606386901703 3 -4 0
1989 387 2 0.5564 10.846490759712578 3.9260403273421516 -8.374439491808115 -1 2 0
4004 1059 1 -1.1128 9.059593241905906 2.9541521842065004 -1.6039951923901654 2 0 0
2238 470 2 0.5564 8.302430097835591 4.614746748651729 -5.766467411513696 4 4 0
1990 387 2 0.5564 9.948617963691909 3.732160820520044 -7.171054025321849 -1 2 0
2677 616 2 0.5564 8.277999684971798 3.33320080654718 -8.161907041827977 3 -1 0
2237 470 1 -1.1128 8.171175987448347 4.097157795155116 -6.560889773799393 4 4 0
1988 387 1 -1.1128 10.78086422942027 3.4470577431710976 -7.548300554984917 -1 2 0
1033 68 2 0.5564 13.832643192187383 6.311648210297662 -8.473782114069223 -2 -2 0
1141 104 2 0.5564 9.850499459102494 0.1893957977046574 -2.7185396620245594 -3 3 0
1782 318 2 0.5564 9.516931781666404 4.587373647673991 -3.988373796218066 -1 -1 0
4005 1059 2 0.5564 8.137243382843774 3.1486176852247185 -1.7704027651782654 2 0 0
1139 104 1 -1.1128 9.121487075823502 0.13361542275806934 -2.1007510106827603 -3 3 0
4006 1059 2 0.5564 9.126999823306235 2.004850729206955 -1.7065515513050882 2 0 0
1451 208 1 -1.1128 9.697610340351185 1.1455643074503132 -5.025871155610302 -4 0 0
4013 1062 1 -1.1128 -1.6224941656398113 4.4825840285657765 -1.4880343528306157 3 -1 0
4294 1155 2 0.5564 12.31547395958215 0.5075724638228941 -2.821424852493801 0 1 0
1116 96 2 0.5564 -1.660139115044267 4.139168513357087 -8.008720391008307 -1 -3 0
1177 116 2 0.5564 11.85531811303155 7.262946586559678 -5.617105377737664 0 4 0
3492 888 2 0.5564 5.632273959253773 7.03349895665941 -10.54063933565156 1 1 0
3416 863 1 -1.1128 4.951026423318484 -0.2757033626280006 -9.950660789806268 0 1 0
1158 110 2 0.5564 3.6954001198890567 6.943845924217969 -10.073741476880977 0 -1 0
1753 308 2 0.5564 12.883631098436371 7.729271125968827 -3.168354987544764 -3 -1 0
4015 1062 2 0.5564 -1.3270664655660676 4.912369409922916 -0.6853891037943638 3 -1 0
1512 228 2 0.5564 14.03685066937797 1.01476411121965 -0.33501984386651146 2 -2 0
1628 267 1 -1.1128 -1.7678054717973777 6.591760317517445 -12.743440706667734 2 1 0
4402 1191 2 0.5564 1.810919050355492 -0.7079713128906917 -11.999706316875544 -2 1 0
4400 1191 1 -1.1128 0.8806685123532971 -0.7000140039735712 -11.774307801254366 -2 1 0
1696 289 2 0.5564 0.5634867069035091 0.6470724065466286 5.336575130880408 1 -3 0
2973 715 2 0.5564 2.372038006101183 0.8471459498899635 3.3553814617384194 1 -1 0
1694 289 1 -1.1128 -0.0996706268222744 1.155105922274621 4.869285576969349 1 -3 0
1695 289 2 0.5564 -0.7111513919054284 0.49987780842854684 4.533124294657675 1 -3 0
2639 604 1 -1.1128 0.1305412132367908 -0.04309757690865173 1.117796190842756 2 4 0
1182 118 2 0.5564 -0.9387148751509956 5.301787821676539 2.3878182751479 4 2 0
3512 895 1 -1.1128 2.1025476136875576 2.7737314929204175 3.3230019317192365 -1 -2 0
2813 662 1 -1.1128 -0.7808221517750223 2.2416989586488354 2.457346429223364 0 1 0
2815 662 2 0.5564 -0.769356009807629 1.5820412593356 1.763837120180131 0 1 0
3513 895 2 0.5564 3.000663385937952 3.0150691756520183 3.549667445988697 -1 -2 0
3514 895 2 0.5564 1.9991051062546232 3.05936756385768 2.415287107017637 -1 -2 0
1949 374 1 -1.1128 1.290366662182787 -0.4476565191651858 12.91433724055591 1 -2 0
2814 662 2 0.5564 -0.4839988295781149 1.7742422029715403 3.2381254372400803 0 1 0
3845 1006 1 -1.1128 1.8220475278297337 3.5403473704161654 0.5207001650425177 -1 0 0
3526 899 2 0.5564 0.21313973165399686 5.119468872893232 4.336929137897787 4 0 0
4126 1099 2 0.5564 11.389903707603672 7.279310496485914 15.70554346242566 0 4 0
2879 684 1 -1.1128 0.19404218850253407 3.7781479135050207 5.415766374069602 2 -2 0
2881 684 2 0.5564 1.1454232946837744 3.8105901598790592 5.516052200243594 2 -2 0
2880 684 2 0.5564 0.025804914190827206 2.9356372678572873 4.993739767702897 2 -2 0
2641 604 2 0.5564 0.8020062301873214 -0.20233499638029148 1.7811293715695176 2 4 0
1233 135 2 0.5564 4.802447982095224 4.085768434277069 4.0544041505737605 -2 1 0
1232 135 1 -1.1128 4.67963648180319 3.1673558921597933 4.294548284780553 -2 1 0
1181 118 1 -1.1128 -0.9359623145215413 4.9460639172063114 1.4991745002097747 4 2 0
1767 313 2 0.5564 4.946669595628724 3.3016881722011897 0.564032542298386 -2 -1 0
3302 825 1 -1.1128 4.672285522100063 5.729338081714183 3.6542762797746717 2 4 0
846 6 2 0.5564 2.0247627430146067 6.412806170856821 13.830798355479283 1 1 0
3439 870 2 0.5564 1.606678956732776 0.09479389175088399 7.208877588911655 1 0 0
3048 740 2 0.5564 -0.12132172859197929 6.683748726537775 0.8504525209907585 -1 -2 0
3961 1044 2 0.5564 1.7958636611957646 2.6910857045873535 7.751421793135227 -2 2 0
2972 715 1 -1.1128 2.09126074067887 -0.0002898306126010771 3.010055210594389 1 -1 0
3101 758 1 -1.1128 6.709409199140998 -0.07131923018996933 8.911238014385725 1 1 0
1083 85 2 0.5564 11.507099019451761 7.458073957158975 0.8201486425563913 5 0 0
2790 654 2 0.5564 8.241045888931144 5.310013776030771 16.08628894773076 0 3 0
3525 899 2 0.5564 -0.08632413934149588 6.56630190546991 4.666926739561974 4 0 0
1084 85 2 0.5564 10.566317950263382 6.59199681057508 1.630542125590486 5 0 0
435 2 4 0 8.59617 2.127 20.3563331933874 0 0 0
1234 135 2 0.5564 5.483178068161283 2.7344034973417903 4.006267431737437 -2 1 0
4418 1197 1 -1.1128 6.008618697866236 2.978088564304627 6.816584471073938 0 2 0
4419 1197 2 0.5564 5.558310349255236 3.053825308288046 5.975324130985593 0 2 0
4420 1197 2 0.5564 6.759890093583744 2.412899886350981 6.636624376046008 0 2 0
2401 524 2 0.5564 5.323251527492195 5.979137581044453 6.6068616479583095 0 -1 0
2367 513 2 0.5564 8.876666211763668 -0.1368586647985202 5.323334412374877 3 5 0
3094 755 2 0.5564 0.15234363927896916 7.415040628553485 12.626340902872872 -1 1 0
491 2 4 0 11.0522 6.381 20.3563331933874 0 0 0
1324 165 2 0.5564 3.542436652180393 3.4911818369889924 5.514738138904021 -2 -1 0
3282 818 2 0.5564 1.5020933540302948 6.581594063268427 3.219255712180579 3 -1 0
4209 1127 2 0.5564 -1.428200828441277 3.3147097878648806 6.686852872076108 4 -1 0
3539 904 1 -1.1128 11.155049792647645 0.8697922608235548 11.701598537859901 -4 0 0
2787 653 2 0.5564 -1.5280620253517117 7.462939722970803 6.521755739324229 -1 -1 0
2754 642 2 0.5564 -1.450803757610955 5.007624037812191 8.928286064395941 0 -1 0
2976 716 2 0.5564 4.210006270262385 6.604046210324233 5.2078357389449765 0 -1 0
1632 268 2 0.5564 4.371795784875307 0.02200992615276231 7.334101302159489 -1 1 0
1754 309 1 -1.1128 12.897936372712557 1.2273755414226337 8.18331742593319 -4 -1 0
3773 982 1 -1.1128 9.775064781764646 1.1291836325669855 17.363589534627135 -1 -3 0
4232 1135 1 -1.1128 11.557296093871182 -0.31860599393918254 3.5129809178919844 3 -1 0
3281 818 1 -1.1128 2.26520716293751 7.015705921244242 2.8378938588226212 3 -1 0
3524 899 1 -1.1128 0.08907127230416151 5.978089831070985 3.932434552458816 4 0 0
3283 818 2 0.5564 2.084285073882531 7.037394408911793 1.8981976418160589 3 -1 0
1183 118 2 0.5564 -0.7220905394039177 4.019917349630047 1.6120747738485446 4 2 0
1082 85 1 -1.1128 10.58334224356081 7.350259328778861 1.046605587447861 5 0 0
3303 825 2 0.5564 3.8993513876395514 6.045412566304383 3.1864015113276865 2 4 0
847 6 2 0.5564 2.478924477644437 7.683313869806467 13.144179752671937 1 1 0
947 40 1 -1.1128 6.577723382820019 -0.0635884496308857 13.052986541587714 -1 0 0
948 40 2 0.5564 6.785309737147612 0.6227036524729037 12.418838288177588 -1 0 0
1755 309 2 0.5564 13.571184444786216 1.2329777991443054 8.863714406552083 -4 -1 0
4398 1190 2 0.5564 -0.607057189346781 -0.3618794407306937 9.011125143666463 -3 -4 0
2119 430 2 0.5564 11.306271467805564 2.2980856488801815 17.317692776554306 1 2 0
2126 433 1 -1.1128 -1.2949498020133285 0.6038349289927833 10.298976698821004 1 2 0
2065 412 2 0.5564 6.906023692814194 0.16637297674287083 3.5377161819237815 -2 3 0
1768 313 2 0.5564 6.112095339752677 4.26774108971638 0.584594817239112 -2 -1 0
4234 1135 2 0.5564 12.053988280591831 -0.1678019830193219 2.708748733028148 3 -1 0
495 2 4 0 13.5083 6.381 20.3563331933874 0 0 0
1303 158 2 0.5564 13.764238992111485 5.197190725698284 11.312448723697093 3 -1 0
3481 884 2 0.5564 13.464645603292546 4.206594930032652 3.437498395658659 -3 0 0
4049 1074 1 -1.1128 13.157328910143399 5.843165882311934 0.743874514247385 1 1 0
3705 959 2 0.5564 8.858549626651625 5.069566416862224 3.998252343675111 -3 0 0
1035 69 2 0.5564 11.085421853507334 4.797809606770711 2.9011128948975347 2 2 0
2063 412 1 -1.1128 6.532014495748265 0.9991907899223835 3.2500284721546295 -2 3 0
1034 69 1 -1.1128 10.459181610675705 5.467629965539693 3.175699396290404 2 2 0
1036 69 2 0.5564 10.979137507112185 6.086533477780148 3.6883814728337074 2 2 0
2252 475 1 -1.1128 8.74093112934563 2.4673863869552877 2.6658221817738443 5 1 0
3704 959 1 -1.1128 7.987972500926376 4.794256398621013 4.285537405485324 -3 0 0
3876 1016 2 0.5564 7.3540752766566495 5.101371047778922 2.5635137942850603 2 -1 0
2254 475 2 0.5564 8.404047996404415 3.225454999821831 3.1433950732707663 5 1 0
1612 261 2 0.5564 8.907718087062262 1.6469335269305077 6.620597930516701 4 2 0
1611 261 2 0.5564 8.210433529341294 1.257375512105408 7.90665208647962 4 2 0
2746 639 2 0.5564 10.04036727490605 -0.4273347880811858 11.76654344593621 -1 -1 0
3706 959 2 0.5564 7.732863693855474 5.446952428765714 4.937564823022459 -3 0 0
1039 70 2 0.5564 11.3102807281184 2.4514492730180306 5.7235953974444085 1 -1 0
1037 70 1 -1.1128 11.834776123565804 2.9633383277628678 6.33931250789313 1 -1 0
3877 1016 2 0.5564 7.907909227113321 5.699487295927325 1.2878083543169792 2 -1 0
3480 884 2 0.5564 12.441706181360725 3.891995635312595 4.508254936184032 -3 0 0
3875 1016 1 -1.1128 7.134857525473634 5.263148965039167 1.6459049208214727 2 -1 0
2897 690 1 -1.1128 12.277778635588643 -0.132193787235003 0.8068465127406815 3 0 0
3479 884 1 -1.1128 12.619819208951126 3.77801926659501 3.5747030775745476 -3 0 0
2137 436 2 0.5564 10.470700154947226 2.3252946377644195 2.22180688167153 2 1 0
2135 436 1 -1.1128 11.332650731374935 2.2049520939944096 1.8233148837373077 2 1 0
1610 261 1 -1.1128 8.589508489567775 2.0073385554109273 7.44829558512361 4 2 0
3201 791 2 0.5564 7.067093395155198 7.179744816722785 8.154961326325568 5 2 0
1927 366 2 0.5564 11.297510685287829 3.61058000837086 0.6824709450894819 -1 1 0
1092 88 2 0.5564 13.665893522208098 0.17718552029142015 15.961642881332855 3 1 0
2640 604 2 0.5564 0.6013084579968851 0.3705307854571815 0.39424768740080846 2 4 0
2064 412 2 0.5564 6.108706978614506 0.7967186230343606 2.4157331562674793 -2 3 0
1974 382 2 0.5564 9.405862904663497 1.9230268748176722 4.191040698210338 -7 2 0
2253 475 2 0.5564 8.003949393519488 1.857447458735391 2.6331259297994527 5 1 0
1973 382 1 -1.1128 9.8498951931195 1.481208696893374 4.914825465514158 -7 2 0
1645 272 2 0.5564 -0.8657578712223488 5.937371240952025 15.89551221333287 -1 2 0
2136 436 2 0.5564 11.933419316606626 2.6693916007694254 2.4060779241832306 2 1 0
3775 982 2 0.5564 8.92714922302297 1.5676006560241442 17.434752735111328 -1 -3 0
1592 255 1 -1.1128 9.38068252360703 6.802650167369454 6.259043199391718 0 -2 0
2194 455 2 0.5564 3.233601155888732 6.955172031411574 16.73771320145415 2 1 0
1594 255 2 0.5564 10.291976021063222 7.090213877034831 6.3145750732306345 0 -2 0
4050 1074 2 0.5564 12.45779935956411 5.298515757838989 0.38297509863434387 1 1 0
1093 88 2 0.5564 13.130688330502563 1.0859479063792266 17.047738337926408 3 1 0
1169 114 1 -1.1128 2.145080025597217 -0.11839722742850498 10.258727107698205 3 2 0
490 2 4 0 11.0522 4.963 20.3563331933874 0 0 0
429 2 4 0 7.36814 0 20.3563331933874 0 0 0
4125 1099 2 0.5564 10.324597564767611 6.7022745560708845 16.613317236110902 0 4 0
1784 319 1 -1.1128 13.202671341610747 -0.08792667166778347 14.21041522541609 3 3 0
2115 429 2 0.5564 1.167380897003461 5.362996134748045 9.436929629042947 0 -1 0
2609 594 1 -1.1128 5.751090590435675 0.10335680170213855 0.8700139372361776 -2 3 0
442 2 4 0 13.5083 0.709 20.3563331933874 0 0 0
1325 166 1 -1.1128 -0.5152209544282867 1.7855578869746325 13.824111128114899 0 1 0
438 2 4 0 11.0522 0.709 20.3563331933874 0 0 0
2400 524 2 0.5564 6.215767681792234 4.7787755145481565 6.84019211366722 0 -1 0
2866 679 2 0.5564 0.005519114358787675 4.73206721003935 7.138472293938487 3 1 0
2399 524 1 -1.1128 6.242713274276084 5.719355036990694 6.664634839344558 0 -1 0
1322 165 1 -1.1128 2.8217160821043175 3.65874727389662 6.121960046387532 -2 -1 0
1323 165 2 0.5564 3.240526406969432 4.0466399982051895 6.890316887545976 -2 -1 0
2975 716 1 -1.1128 3.8600541220129836 6.991244070307019 6.010236735626698 0 -1 0
1327 166 2 0.5564 0.26720058694547744 1.2360744995860056 13.778097463258806 0 1 0
2114 429 1 -1.1128 1.7829644720854865 5.4378903717919975 10.16609445115245 0 -1 0
919 30 2 0.5564 3.443372755196907 3.5073483650088817 11.993746771081952 1 1 0
917 30 1 -1.1128 3.8260065545504776 4.146753709643267 11.392925400411663 1 1 0
1482 218 2 0.5564 -0.23794148192547465 3.5383724516401025 10.222163489151026 -2 -4 0
1483 218 2 0.5564 0.5720389219572285 3.3120894107387038 11.48098317444974 -2 -4 0
2128 433 2 0.5564 -0.6295090454877972 1.1087794889873495 10.766365535391289 1 2 0
1481 218 1 -1.1128 0.29127815759264486 2.88096457139563 10.673803810623976 -2 -4 0