LAMMPS data file via write_data, version 2 Aug 2023, timestep = 6750000, units = real

3232 atoms
4 atom types
1600 bonds
1 bond types
800 angles
1 angle types
0 impropers
1 improper types

-1.8420299999999998 30.08661 xlo xhi
-0.709 33.323 ylo yhi
-150 150 zlo zhi

Masses

1 15.9994
2 1.00794
3 12.0107
4 12.0107

Pair Coeffs # lj/cut/tip4p/long

1 0.1852 3.1589
2 0 0
3 0.0859 3.3997
4 0.0859 3.3997

Bond Coeffs # harmonic

1 5000 0.9572

Angle Coeffs # harmonic

1 500 104.52

Atoms # full

1 1 3 0 0 0 -13.028967241974486 0 0 0
2 1 3 0 -1.22802 0.709 -13.028967241974486 0 0 0
3 1 3 0 -1.22802 2.127 -13.028967241974486 0 0 0
4 1 3 0 0 2.836 -13.028967241974486 0 0 0
5 1 3 0 2.45605 0 -13.028967241974486 0 0 0
6 1 3 0 1.22802 0.709 -13.028967241974486 0 0 0
7 1 3 0 1.22802 2.127 -13.028967241974486 0 0 0
8 1 3 0 2.45605 2.836 -13.028967241974486 0 0 0
9 1 3 0 4.9121 0 -13.028967241974486 0 0 0
10 1 3 0 3.68407 0.709 -13.028967241974486 0 0 0
11 1 3 0 3.68407 2.127 -13.028967241974486 0 0 0
12 1 3 0 4.9121 2.836 -13.028967241974486 0 0 0
14 1 3 0 6.14012 0.709 -13.028967241974486 0 0 0
15 1 3 0 6.14012 2.127 -13.028967241974486 0 0 0
53 1 3 0 0 4.254 -13.028967241974486 0 0 0
54 1 3 0 -1.22802 4.963 -13.028967241974486 0 0 0
55 1 3 0 -1.22802 6.381 -13.028967241974486 0 0 0
56 1 3 0 0 7.09 -13.028967241974486 0 0 0
57 1 3 0 2.45605 4.254 -13.028967241974486 0 0 0
58 1 3 0 1.22802 4.963 -13.028967241974486 0 0 0
59 1 3 0 1.22802 6.381 -13.028967241974486 0 0 0
60 1 3 0 2.45605 7.09 -13.028967241974486 0 0 0
61 1 3 0 4.9121 4.254 -13.028967241974486 0 0 0
62 1 3 0 3.68407 4.963 -13.028967241974486 0 0 0
63 1 3 0 3.68407 6.381 -13.028967241974486 0 0 0
64 1 3 0 4.9121 7.09 -13.028967241974486 0 0 0
66 1 3 0 6.14012 4.963 -13.028967241974486 0 0 0
67 1 3 0 6.14012 6.381 -13.028967241974486 0 0 0
1478 217 1 -1.1128 3.602718741992016 -0.4324791845230554 -9.888458961927286 0 3 0
2420 531 1 -1.1128 5.587475057274011 1.8065948920885402 -9.045056200520062 -2 2 0
2422 531 2 0.5564 5.40495710276284 2.5659199026395068 -9.598541374017378 -2 2 0
2421 531 2 0.5564 4.757661607883333 1.6267278122412756 -8.603139483178847 -2 2 0
1479 217 2 0.5564 3.221670685640112 0.31154639034105047 -9.422131406501121 0 3 0
3027 733 2 0.5564 6.051274093492315 4.707354738384285 -9.015462216211848 5 -1 0
846 6 2 0.5564 1.4651896486930525 5.989358573467682 -8.978273517729013 -2 0 0
3028 733 2 0.5564 5.761761799814645 5.298624474606904 -10.378722741392936 5 -1 0
1547 240 1 -1.1128 3.956557637099977 6.323082340995445 -9.933115585748622 2 4 0
1974 382 2 0.5564 3.244848612531303 4.750520287672904 -9.02106891681156 2 1 0
2502 558 2 0.5564 -0.8347699606138098 0.6030805660820013 -7.5041969589924005 2 -2 0
847 6 2 0.5564 0.37070014418560165 6.298075353207823 -9.977615278643992 -2 0 0
845 6 1 -1.1128 1.1249170954886223 6.68871508014221 -9.536262528804276 -2 0 0
1480 217 2 0.5564 4.012885389644079 -0.04617213543814147 -10.662257862485593 0 3 0
2784 652 2 0.5564 -1.1105655065075466 2.104378423830372 -10.093952722814963 5 -3 0
856 9 2 0.5564 -0.9229901123101235 4.859397989643597 -8.75518270508634 -1 -3 0
2579 584 1 -1.1128 3.0268754831337907 1.4743368163470332 -7.666633169133416 5 -2 0
1973 382 1 -1.1128 2.721229336482544 4.3529304089316 -8.325382536639289 2 1 0
2581 584 2 0.5564 2.5442930723578527 2.295700257808713 -7.759961957112059 5 -2 0
1975 382 2 0.5564 3.1434799120308314 4.637376733016381 -7.514808852089469 2 1 0
2785 652 2 0.5564 -1.6235180507129008 1.9099071669909573 -8.68293970300265 5 -3 0
1549 240 2 0.5564 3.0293137496835763 6.513552891923846 -10.075151029006788 2 4 0
1548 240 2 0.5564 4.2873453517719415 7.083685925862755 -9.455309492384657 2 4 0
854 9 1 -1.1128 -1.25980769985832 5.2051757798498075 -9.581756503017635 -1 -3 0
3026 733 1 -1.1128 6.1625670831536095 4.541552662708988 -9.951603410483088 5 -1 0
1085 86 1 -1.1128 10.272204853656655 1.7282352060374537 -9.745722873882427 5 1 0
1086 86 2 0.5564 9.649785537524815 2.4387712687792082 -9.900545005466174 5 1 0
2376 516 2 0.5564 8.390362465480338 4.47597706874477 -9.93691254630192 -1 2 0
13 1 3 0 7.36814 0 -13.028967241974486 0 0 0
16 1 3 0 7.36814 2.836 -13.028967241974486 0 0 0
17 1 3 0 9.82419 0 -13.028967241974486 0 0 0
18 1 3 0 8.59617 0.709 -13.028967241974486 0 0 0
19 1 3 0 8.59617 2.127 -13.028967241974486 0 0 0
20 1 3 0 9.82419 2.836 -13.028967241974486 0 0 0
21 1 3 0 12.2802 0 -13.028967241974486 0 0 0
22 1 3 0 11.0522 0.709 -13.028967241974486 0 0 0
23 1 3 0 11.0522 2.127 -13.028967241974486 0 0 0
24 1 3 0 12.2802 2.836 -13.028967241974486 0 0 0
26 1 3 0 13.5083 0.709 -13.028967241974486 0 0 0
27 1 3 0 13.5083 2.127 -13.028967241974486 0 0 0
65 1 3 0 7.36814 4.254 -13.028967241974486 0 0 0
68 1 3 0 7.36814 7.09 -13.028967241974486 0 0 0
69 1 3 0 9.82419 4.254 -13.028967241974486 0 0 0
70 1 3 0 8.59617 4.963 -13.028967241974486 0 0 0
71 1 3 0 8.59617 6.381 -13.028967241974486 0 0 0
72 1 3 0 9.82419 7.09 -13.028967241974486 0 0 0
73 1 3 0 12.2802 4.254 -13.028967241974486 0 0 0
74 1 3 0 11.0522 4.963 -13.028967241974486 0 0 0
75 1 3 0 11.0522 6.381 -13.028967241974486 0 0 0
76 1 3 0 12.2802 7.09 -13.028967241974486 0 0 0
78 1 3 0 13.5083 4.963 -13.028967241974486 0 0 0
79 1 3 0 13.5083 6.381 -13.028967241974486 0 0 0
2375 516 1 -1.1128 9.154841113087597 4.255136358975497 -9.404902001491356 -1 2 0
1087 86 2 0.5564 10.641913007358859 1.5407954173284573 -10.608518006548415 5 1 0
2377 516 2 0.5564 9.08296545641167 4.819888040323491 -8.635403433451 -1 2 0
2975 716 1 -1.1128 12.9661519565954 2.798998881759853 -9.441956923086654 -3 0 0
1117 96 2 0.5564 8.753627007877501 -0.2725549757039721 -9.347319505584904 -5 -1 0
2976 716 2 0.5564 12.821370939211373 3.7350809652731107 -9.579884087391504 -3 0 0
1924 365 2 0.5564 11.56496923511695 6.3782944420870145 -9.524130212377127 1 0 0
1922 365 1 -1.1128 11.605781832604567 5.4268548869906725 -9.620721564231767 1 0 0
2977 716 2 0.5564 12.098201942372828 2.4489628847410727 -9.241028399784838 -3 0 0
1923 365 2 0.5564 10.69040815892152 5.150859596616093 -9.667110504513259 1 0 0
2849 674 1 -1.1128 7.994432929198089 0.815988422796993 -7.861500941735026 0 1 0
2851 674 2 0.5564 7.437046295491275 1.3684397654223752 -8.409544349166474 0 1 0
1525 232 2 0.5564 -1.3448675022472496 7.089455167741626 -4.404438299399352 3 0 0
1619 264 1 -1.1128 1.2829261754197552 6.104023240568755 -2.5927334383360066 -1 -2 0
1358 177 1 -1.1128 -1.347436983897853 3.351708163467482 -2.3575549137855907 -2 -1 0
1713 295 2 0.5564 3.0896479562912194 6.568850373537396 -2.0137832641019537 -5 -1 0
1744 305 2 0.5564 2.372021143803026 7.468223738150425 -5.822839782398346 0 1 0
1360 177 2 0.5564 -1.313539884245872 3.529927306989215 -3.2974070599625067 -2 -1 0
2393 522 1 -1.1128 1.4782792411738908 4.924965684490797 -5.016502850573594 -1 2 0
3002 725 1 -1.1128 3.3643613356841526 1.825340465109371 -1.7204102324932784 2 -2 0
2395 522 2 0.5564 1.9365014870126767 4.12121268950265 -4.771047520770725 -1 2 0
877 16 2 0.5564 4.5111744161641205 5.88761441124609 -0.4633253298600803 1 -3 0
3004 725 2 0.5564 3.8991637744624197 1.6307633941726258 -0.9507589150979675 2 -2 0
997 56 2 0.5564 1.1766682917871973 -0.5310030029015175 -1.3976796204453668 4 -3 0
2467 546 2 0.5564 3.7096553527689347 -0.24551420750629485 -3.492052878223066 6 -1 0
2916 696 2 0.5564 4.428364033534525 2.89417731285679 -4.7237147625543665 -1 -3 0
1170 114 2 0.5564 -0.3204842685055021 1.5522219235921275 -2.431836441058452 1 3 0
1171 114 2 0.5564 0.6400897128329194 0.7006643273818127 -3.234360910715795 1 3 0
2917 696 2 0.5564 3.4510639541218344 2.6598033161792585 -3.5915258815608637 -1 -3 0
1762 311 2 0.5564 -0.930621106990486 3.3645631442829425 -6.28812654096344 2 -2 0
1760 311 1 -1.1128 -0.7804406149962139 4.303201084382124 -6.400550227485908 2 -2 0
1962 378 2 0.5564 0.5737047083163042 0.7200206987317395 -5.858132489306038 -1 4 0
1761 311 2 0.5564 0.08260845858382551 4.455933598054088 -6.015771279489597 2 -2 0
1961 378 1 -1.1128 1.3291292229932676 0.24352017503035056 -5.513874954589013 -1 4 0
1963 378 2 0.5564 1.1235168085607998 -0.678040707953825 -5.670978686293815 -1 4 0
2210 461 1 -1.1128 6.127231085776816 2.5239044652089895 -5.574853932644371 -4 4 0
2211 461 2 0.5564 5.986053685264475 1.7967187504777675 -6.181074240769631 -4 4 0
1169 114 1 -1.1128 0.33429518016104437 0.8598933946084008 -2.341405453419384 1 3 0
2915 696 1 -1.1128 3.4988808372209985 2.9508485917630707 -4.502153263681557 -1 -3 0
1714 295 2 0.5564 3.7863093561924694 7.552750267914923 -1.098085621688603 -5 -1 0
2513 562 1 -1.1128 4.289186450260787 5.64880788279926 -5.844528806045692 -2 2 0
2514 562 2 0.5564 4.734447271759949 6.25996897245301 -5.257620427581604 -2 2 0
2515 562 2 0.5564 3.710225869071483 5.145225798895189 -5.272302852113579 -2 2 0
876 16 2 0.5564 5.43934158415232 4.740449880324719 -0.1250668793737755 1 -3 0
2501 558 1 -1.1128 -0.7251478819650342 1.4421696277056946 -7.056821556059343 2 -2 0
1620 264 2 0.5564 0.7704570692865489 5.713744137434884 -1.8847114173269226 -1 -2 0
1359 177 2 0.5564 -0.5514337137946737 3.75259615852717 -2.008410698618554 -2 -1 0
2580 584 2 0.5564 2.6895154769292335 1.0882967800185108 -6.8583050510883945 5 -2 0
3003 725 2 0.5564 2.7790959944670917 1.072379722381811 -1.8025539233119128 2 -2 0
2444 539 1 -1.1128 5.482786088352664 0.1482920333390575 -3.6257674501530044 2 0 0
2446 539 2 0.5564 5.855585646969087 0.10934511590762558 -4.50652667216014 2 0 0
3076 749 2 0.5564 5.69809337200754 5.430620111546859 -6.785530395677466 4 1 0
2394 522 2 0.5564 1.2021672701054675 5.307676258937085 -4.183717161567948 -1 2 0
2450 541 1 -1.1128 5.601907864593397 7.267557594028223 -4.02061182976745 1 1 0
2204 459 1 -1.1128 0.10269645070792376 4.794246518383276 -0.5388349156425994 -4 -3 0
2445 539 2 0.5564 5.919673102396842 -0.5573218131923242 -3.148827695214397 2 0 0
2465 546 1 -1.1128 2.7812933561557722 -0.47650099238797894 -3.4600862006638486 6 -1 0
1712 295 1 -1.1128 3.9567618045686874 6.89302871784731 -1.7703564502454778 -5 -1 0
2451 541 2 0.5564 4.947534674611182 7.379309851869292 -3.3310179904345474 1 1 0
2503 558 2 0.5564 -1.4927227903420042 1.513695899704575 -6.4894191620264845 2 -2 0
2466 546 2 0.5564 2.412128508692908 -0.0976891249076658 -4.257865083987473 6 -1 0
1621 264 2 0.5564 0.8566708483307873 6.94406615819765 -2.7626499472464476 -1 -2 0
948 40 2 0.5564 2.5106441048956216 3.099044576972766 -0.34818751279164106 4 4 0
2206 459 2 0.5564 -0.36276552854471256 5.522268896680676 -0.1270562223362672 -4 -3 0
1715 296 1 -1.1128 13.412221220115894 4.286547106249085 -2.718883203399144 1 -2 0
1135 102 2 0.5564 12.416066708220631 0.3930210047641906 -0.4676742769747498 -2 -3 0
1602 258 2 0.5564 10.059650183169726 3.503327294331017 -3.5216438593528068 -1 -4 0
2006 393 1 -1.1128 8.882253863444282 2.02408344600041 -4.032300703256478 0 -1 0
2418 530 2 0.5564 10.37793026213998 -0.609409804573815 -7.4249816493778855 3 -1 0
1133 102 1 -1.1128 12.49895538508349 -0.45181095143033 -0.025382691756229578 -2 -3 0
2128 433 2 0.5564 13.283481076294978 5.268657810678059 -5.238684338924939 3 4 0
2452 541 2 0.5564 6.312878974680113 6.783452273776396 -3.600617744072254 1 1 0
1274 149 1 -1.1128 6.334505193483868 -0.5172558290375239 -6.3185852604173585 1 0 0
1909 360 2 0.5564 7.786067120708037 3.2299827017189 -0.6104436467105184 -1 -1 0
1921 364 2 0.5564 12.083748317224854 5.159956764615677 -7.399765559150962 0 1 0
3074 749 1 -1.1128 6.458530329906952 5.151916696707125 -7.295719634999517 4 1 0
2212 461 2 0.5564 6.935285046504361 2.2986071007970432 -5.113851746653042 -4 4 0
3075 749 2 0.5564 6.776919060016357 4.370162814207645 -6.844364057930598 4 1 0
1335 169 2 0.5564 12.32473129999352 2.6914092835319074 -0.725542036792826 -4 1 0
1716 296 2 0.5564 13.630095165253946 4.9639224940115065 -3.359142642589966 1 -2 0
1628 267 1 -1.1128 13.392899058737104 1.4119005525747526 -6.140242068064059 -3 -1 0
2708 627 1 -1.1128 10.452460215264683 6.66268289027874 -2.778083214026291 -3 -3 0
2912 695 1 -1.1128 9.593701704989813 3.1361070122519137 -0.5160185306907762 -1 2 0
2710 627 2 0.5564 10.56841500065191 6.973108444708946 -1.8800702549643014 -3 -3 0
1907 360 1 -1.1128 6.893037970893496 3.5741225903477774 -0.6278452799527096 -1 -1 0
1340 171 1 -1.1128 9.093599944945396 6.038857536958107 -7.31112088306199 3 -1 0
2914 695 2 0.5564 9.739278014592921 3.4477008068737502 -1.409301721234101 -1 2 0
1209 127 2 0.5564 10.2163358572908 1.9663638320156662 -7.079202369566199 -2 -2 0
1341 171 2 0.5564 8.14471206070337 5.922037912870662 -7.358061083773024 3 -1 0
1601 258 1 -1.1128 10.57296165542653 3.984691051569004 -2.87277032178218 -1 -4 0
2709 627 2 0.5564 9.521049076830554 6.790682392878953 -2.9578659153658937 -3 -3 0
1365 179 2 0.5564 8.89525656569835 -0.3309756956086188 -0.8786084931689979 -1 3 0
1919 364 1 -1.1128 11.64159110548351 4.837934089691615 -6.614250793033087 0 1 0
1336 169 2 0.5564 12.237356180005495 1.865916001479215 -1.9915712554237566 -4 1 0
1717 296 2 0.5564 12.467487234338297 4.163618791483928 -2.8116375536307507 1 -2 0
1908 360 2 0.5564 6.351069725493318 2.8230272233246168 -0.8694224914276103 -1 -1 0
1630 267 2 0.5564 12.455572227780172 1.5421647014264313 -6.284067515994308 -3 -1 0
1342 171 2 0.5564 9.210509516859036 6.955889093920464 -7.062885327394745 3 -1 0
2008 393 2 0.5564 9.407026657414226 1.5191930353468055 -4.653534890504683 0 -1 0
1695 289 2 0.5564 13.412865005163617 0.5036520551639749 -3.3405512086393085 0 1 0
2007 393 2 0.5564 8.813180231482113 1.4597567649446352 -3.262236302951752 0 -1 0
1364 179 1 -1.1128 9.277790057390128 0.2501335689396502 -1.536037736045015 -1 3 0
3063 745 2 0.5564 7.16799823342788 5.436882081920729 -1.344110219919603 6 2 0
2850 674 2 0.5564 7.38094428877539 0.3041769266610822 -7.334325293739583 0 1 0
1366 179 2 0.5564 9.889092362090851 -0.3048593858806387 -2.020322832244239 -1 3 0
1696 289 2 0.5564 12.794368687172284 0.7351907629641792 -4.7028107886153885 0 1 0
3062 745 1 -1.1128 7.318161853024622 6.167363724185992 -1.9441767627223505 6 2 0
1694 289 1 -1.1128 12.575539279855635 0.48879305143450297 -3.8041219809128157 0 1 0
1334 169 1 -1.1128 12.620078096432794 1.8680374549757968 -1.114215019759461 -4 1 0
1210 127 2 0.5564 11.134284728532311 3.0194191230867995 -6.495812920718861 -2 -2 0
3064 745 2 0.5564 7.256559738410252 6.947404904215118 -1.3928387902810002 6 2 0
1920 364 2 0.5564 10.748601586496086 5.175005681254125 -6.686286038751468 0 1 0
1603 258 2 0.5564 10.125826879620936 4.826968956391308 -2.789865878020121 -1 -4 0
1208 127 1 -1.1128 10.914081592068156 2.0898332774832626 -6.435665550761283 -2 -2 0
2913 695 2 0.5564 9.515842531027596 2.186046308577788 -0.6029499724206143 -1 2 0
1629 267 2 0.5564 13.780962380962563 1.4773995890684246 -7.012795545331205 -3 -1 0
3045 739 2 0.5564 11.140201301195034 -0.5937815793071374 -3.715375962729935 1 -2 0
2952 708 2 0.5564 11.683111137059354 7.618690072951026 -3.574369613714919 -3 1 0
2760 644 2 0.5564 11.098271283668815 5.780720730433153 -0.203554080838434 0 1 0
2759 644 1 -1.1128 10.780173748348984 6.6602954245105455 -9.487339407057184e-05 0 1 0
1426 199 2 0.5564 2.1138614271933944 3.357126109597857 2.2797001814200537 4 3 0
1424 199 1 -1.1128 2.0136774435260545 3.6694194955583823 3.178960211652596 4 3 0
949 40 2 0.5564 3.1632673127770348 4.223144695155332 0.42794357402345756 4 4 0
1259 144 1 -1.1128 3.234128077203723 6.2340331550889845 6.613286678424306 1 0 0
2967 713 2 0.5564 4.031377565010167 4.837506940567865 3.152097762836284 -3 -1 0
1425 199 2 0.5564 1.5387387991642671 4.496168324859891 3.0943861163492077 4 3 0
2826 666 2 0.5564 -0.10184757116464149 1.828633624987548 2.0373876412827 3 2 0
2966 713 1 -1.1128 4.886717930865661 5.261469807961679 3.0822298999565274 -3 -1 0
2231 468 1 -1.1128 -1.434565439408627 0.40995933375214244 4.524972655145857 -4 3 0
2825 666 1 -1.1128 0.47710314783804425 1.5028409320336504 2.726526636397922 3 2 0
1112 95 1 -1.1128 0.5500965053987817 5.844901417783995 2.474639564472636 -3 5 0
2827 666 2 0.5564 0.819065373743153 2.292433559804022 3.1458597981884293 3 2 0
2589 587 2 0.5564 -0.03283642497729172 3.2448902404323414 6.869934495560125 1 3 0
2762 645 1 -1.1128 3.117016408169174 3.6559005538885967 5.859483217294283 0 4 0
2764 645 2 0.5564 2.5953859064915323 3.390722544175124 5.101977491272868 0 4 0
2763 645 2 0.5564 2.9377609992977676 4.590902735940861 5.958859914409491 0 4 0
1261 144 2 0.5564 3.312306238589373 7.111588020857243 6.239092199444436 1 0 0
2261 478 1 -1.1128 -1.3023480157232492 2.197140715433202 0.7095993477941612 -2 1 0
1113 95 2 0.5564 -0.396017597004602 5.956882215541583 2.567168344874173 -3 5 0
2205 459 2 0.5564 0.8356107213055253 4.6142709664850265 0.04996162776848106 -4 -3 0
2844 672 2 0.5564 5.689111086586411 1.5516365108589976 3.39054343337536 -1 3 0
1075 82 2 0.5564 4.716270381160576 0.9830636713013476 1.0875505539776218 -3 0 0
1308 160 2 0.5564 -0.7763930997404258 6.1491067090829725 5.4069337929141215 -1 -1 0
875 16 1 -1.1128 4.72731971615734 5.269395068743245 0.23476206131459465 1 -3 0
2588 587 1 -1.1128 0.7566928322610371 2.874858624338422 7.264842940911338 1 3 0
2590 587 2 0.5564 1.4681286939434883 3.1601833585689207 6.691534573623294 1 3 0
1073 82 1 -1.1128 5.150263936729155 1.0238268933312291 0.235363511898871 -3 0 0
1260 144 2 0.5564 2.842573167666505 6.374728655795135 7.475333986468667 1 0 0
2233 468 2 0.5564 -0.8243887327033491 0.7428164403468057 3.866851655160927 -4 3 0
2968 713 2 0.5564 5.118891783470036 5.1824110323918395 2.156984458218071 -3 -1 0
1484 219 1 -1.1128 5.767258060465782 3.516080619627797 6.905353394906538 -1 1 0
3095 756 1 -1.1128 3.391377396465918 -0.11124152305199964 5.485668200154924 3 2 0
2096 423 1 -1.1128 2.0711961636943745 -0.6971927442010042 1.7622041515774052 4 -2 0
2841 671 2 0.5564 3.517152278484737 0.279134464166904 2.3976633699314536 2 4 0
2263 478 2 0.5564 -0.9470435737018993 2.7967599600562227 0.0535142436916885 -2 1 0
978 50 2 0.5564 4.341011644071202 7.073558803756741 3.4110975436816378 -3 1 0
2635 602 2 0.5564 -1.348519171914625 -0.5120924084384862 6.185532436702219 1 -3 0
2840 671 1 -1.1128 4.291169789895948 0.6718552677058333 2.801276881607697 2 4 0
3097 756 2 0.5564 2.730811245716879 0.19690543488887052 6.10609635059439 3 2 0
2842 671 2 0.5564 4.127102958587514 0.6128591970961085 3.7424647269858204 2 4 0
2097 423 2 0.5564 1.4449411901677514 -0.006961643066772074 1.9804245223811598 4 -2 0
1114 95 2 0.5564 0.8393486911363149 6.626462723722058 2.0037594915495 -3 5 0
947 40 1 -1.1128 2.41884950827043 3.6217632459311613 0.4484137212437344 4 4 0
1486 219 2 0.5564 4.926637933457564 3.3950047669001666 6.463840512750925 -1 1 0
1307 160 1 -1.1128 -1.1185732955832353 5.407846568219038 5.906614790496168 -1 -1 0
1465 212 2 0.5564 5.224883597968245 6.349356795363029 6.6458363301180805 2 -5 0
1074 82 2 0.5564 5.470098964609083 0.13407017749752595 0.08612685813362958 -3 0 0
853 8 2 0.5564 13.892118399160156 4.2106583599907825 6.371204735925815 1 2 0
2843 672 1 -1.1128 6.609803279938662 1.7885718894266058 3.5020099933984588 -1 3 0
1485 219 2 0.5564 6.392684522456016 3.660471018913912 6.195264057086532 -1 1 0
1463 212 1 -1.1128 6.153677333860795 6.573639643375349 6.588617612521081 2 -5 0
1464 212 2 0.5564 6.506141321372048 5.971142089298338 5.933635252586677 2 -5 0
1855 342 2 0.5564 14.006283727821113 5.79251533063394 0.3396341143530677 -2 1 0
2845 672 2 0.5564 6.997277643626919 1.6597097729240204 2.6362776437506676 -1 3 0
1147 106 2 0.5564 10.685837807805633 -0.2920868437626811 3.327648455486102 5 0 0
2583 585 2 0.5564 10.52947757850916 1.6428382270635566 5.870596539411422 4 -1 0
1976 383 1 -1.1128 7.409236428548256 -0.5171983087792019 4.461452721530377 2 0 0
1513 228 2 0.5564 6.323726223849796 4.5896720082544 4.140265576936469 -2 4 0
1512 228 2 0.5564 7.703256854515432 4.054747764206931 4.460655637574218 -2 4 0
1511 228 1 -1.1128 7.067729882836185 4.718497105154764 4.728567108919617 -2 4 0
1556 243 1 -1.1128 12.97162603794352 1.3577316048225492 3.514549866930975 3 1 0
1557 243 2 0.5564 13.500902046969594 1.198101792703334 4.295974647723276 3 1 0
1977 383 2 0.5564 8.365716480168041 -0.48011697070897585 4.459773012623193 2 0 0
3058 743 2 0.5564 12.526472585143958 3.158806008780284 3.598710668518417 -1 -1 0
921 31 2 0.5564 13.984465820464424 1.3170999038318314 2.040797431129665 -3 -3 0
1222 131 2 0.5564 10.368193085171068 6.890128114052982 5.6831067251220455 -2 0 0
2284 485 2 0.5564 12.238583043023768 3.3905719296132646 1.3152302019273483 -2 1 0
1766 313 1 -1.1128 9.064485629255465 6.89222247519892 3.9268946455097744 -3 1 0
1767 313 2 0.5564 8.371357333353073 6.2611995732524734 3.732946972641859 -3 1 0
1768 313 2 0.5564 9.817013976532552 6.585050831591669 3.421343380583675 -3 1 0
2403 525 2 0.5564 9.796930940912539 2.0071228633095406 3.6016720846885963 -2 1 0
2495 556 1 -1.1128 12.240585442741908 4.284688091544789 6.746618749819504 -2 1 0
2497 556 2 0.5564 12.072671030792863 5.159680845622093 6.396720731233923 -2 1 0
2402 525 1 -1.1128 9.76596695040236 2.844289244428126 3.1386101587358604 -2 1 0
2404 525 2 0.5564 10.532923494964551 3.3218889365943647 3.4546943279742335 -2 1 0
1220 131 1 -1.1128 11.28690916076872 6.948805113627663 5.945310212824616 -2 0 0
3056 743 1 -1.1128 12.367968624135612 4.048705976854234 3.9136555441542247 -1 -1 0
3057 743 2 0.5564 13.030385460578588 4.580825248193213 3.4728761563219823 -1 -1 0
2761 644 2 0.5564 11.197216938950461 6.879550541307341 0.8331131715917883 0 1 0
1978 383 2 0.5564 7.1336992477842305 0.38880763752461933 4.321935836770692 2 0 0
1558 243 2 0.5564 12.11173366824273 0.9961074813744615 3.729133526386461 3 1 0
1362 178 2 0.5564 14.044405140860347 1.417959446111931 6.77898575543216 -1 -1 0
2584 585 2 0.5564 10.472564833247974 2.0166755153326306 7.33651111701585 4 -1 0
1145 106 1 -1.1128 10.557322595878572 -0.01632049367174439 4.235212279504484 5 0 0
2282 485 1 -1.1128 11.915855613646471 3.8870355400384553 0.563163421935184 -2 1 0
2283 485 2 0.5564 11.026692445107699 3.5610340472335293 0.4240703547153098 -2 1 0
1221 131 2 0.5564 11.260857264645143 7.3073360538772025 6.832448183311795 -2 0 0
2582 585 1 -1.1128 10.218388721464688 2.324310915043514 6.466458244658504 4 -1 0
2496 556 2 0.5564 11.689906249922105 3.7057173899482447 6.219567026100759 -2 1 0
1134 102 2 0.5564 13.395678623047306 -0.46049750032878456 0.3093491292479381 -2 -3 0
1576 249 2 0.5564 0.6096979294647378 -0.4593054989808693 7.551270184770354 -2 0 0
1574 249 1 -1.1128 1.4440743226813437 0.007926677483939559 7.509457256789141 -2 0 0
1575 249 2 0.5564 1.2218695235911459 0.9151228924553231 7.718880539343058 -2 0 0
2608 593 2 0.5564 0.7288984416566053 7.57864391476777 8.33307138568398 1 5 0
3070 747 2 0.5564 2.9338459500076595 -0.5320815364811126 8.784496685757768 2 4 0
2596 589 2 0.5564 -1.4541918267734728 5.620667402015445 7.742577491988567 0 3 0
2595 589 2 0.5564 -0.9831913599186956 5.23646092705257 9.129098803978458 0 3 0
1800 324 2 0.5564 2.463434639616859 7.472566349836152 9.410450911644675 1 0 0
1801 324 2 0.5564 3.055780576806988 6.079590591728001 9.435845138892264 1 0 0
1799 324 1 -1.1128 2.285043491916535 6.5692739263196085 9.14876775843659 1 0 0
1857 343 2 0.5564 1.035095351358127 4.5934246032632 10.089647784553016 1 0 0
1866 346 2 0.5564 4.853662040254174 4.545485139945171 8.462541615760365 0 2 0
1856 343 1 -1.1128 0.34842885064415996 4.0774427373753594 9.66717434932077 1 0 0
1858 343 2 0.5564 0.7707582437068756 3.7033209693477662 8.89393060256001 1 0 0
482 2 4 0 6.14012 4.963 12.736959109302104 0 0 0
480 2 4 0 4.9121 7.09 12.736959109302104 0 0 0
483 2 4 0 6.14012 6.381 12.736959109302104 0 0 0
417 2 4 0 0 0 12.736959109302104 0 0 0
418 2 4 0 -1.22802 0.709 12.736959109302104 0 0 0
419 2 4 0 -1.22802 2.127 12.736959109302104 0 0 0
420 2 4 0 0 2.836 12.736959109302104 0 0 0
421 2 4 0 2.45605 0 12.736959109302104 0 0 0
422 2 4 0 1.22802 0.709 12.736959109302104 0 0 0
423 2 4 0 1.22802 2.127 12.736959109302104 0 0 0
424 2 4 0 2.45605 2.836 12.736959109302104 0 0 0
425 2 4 0 4.9121 0 12.736959109302104 0 0 0
426 2 4 0 3.68407 0.709 12.736959109302104 0 0 0
427 2 4 0 3.68407 2.127 12.736959109302104 0 0 0
428 2 4 0 4.9121 2.836 12.736959109302104 0 0 0
430 2 4 0 6.14012 0.709 12.736959109302104 0 0 0
431 2 4 0 6.14012 2.127 12.736959109302104 0 0 0
469 2 4 0 0 4.254 12.736959109302104 0 0 0
470 2 4 0 -1.22802 4.963 12.736959109302104 0 0 0
471 2 4 0 -1.22802 6.381 12.736959109302104 0 0 0
472 2 4 0 0 7.09 12.736959109302104 0 0 0
473 2 4 0 2.45605 4.254 12.736959109302104 0 0 0
474 2 4 0 1.22802 4.963 12.736959109302104 0 0 0
475 2 4 0 1.22802 6.381 12.736959109302104 0 0 0
476 2 4 0 2.45605 7.09 12.736959109302104 0 0 0
477 2 4 0 4.9121 4.254 12.736959109302104 0 0 0
478 2 4 0 3.68407 4.963 12.736959109302104 0 0 0
479 2 4 0 3.68407 6.381 12.736959109302104 0 0 0
1865 346 1 -1.1128 4.601430285896116 4.980433713491898 9.277056911700964 0 2 0
1867 346 2 0.5564 5.208373610513283 5.716607779914535 9.353916076226975 0 2 0
1143 105 2 0.5564 5.3999956685954045 -0.2800465803825822 9.550144002138467 3 -1 0
3069 747 2 0.5564 2.7090816690775843 0.08279448352842363 10.149525934603854 2 4 0
2594 589 1 -1.1128 -1.6550815267223071 5.741091427390318 8.67068146076476 0 3 0
3068 747 1 -1.1128 3.276025530239386 -0.5278464790197587 9.678436675184734 2 4 0
2276 483 1 -1.1128 13.751945441840562 3.731760842558693 9.678267942134756 1 4 0
1632 268 2 0.5564 9.164791407309528 1.4695756414845982 8.756352708361746 3 -2 0
2277 483 2 0.5564 13.630258020172578 2.839822205966388 9.35289076022586 1 4 0
1633 268 2 0.5564 9.995893549331084 0.2712997837311198 9.16292663515979 3 -2 0
489 2 4 0 12.2802 4.254 12.736959109302104 0 0 0
435 2 4 0 8.59617 2.127 12.736959109302104 0 0 0
486 2 4 0 8.59617 4.963 12.736959109302104 0 0 0
1144 105 2 0.5564 6.756100740595622 0.3064478548797811 9.220145790161395 3 -1 0
2101 424 2 0.5564 7.347347191759282 5.650114221421271 9.047043217449998 -1 -1 0
494 2 4 0 13.5083 4.963 12.736959109302104 0 0 0
1631 268 1 -1.1128 10.062266937262592 1.2036018086069116 8.956423868735715 3 -2 0
1442 205 1 -1.1128 7.009757282639576 2.007146056643308 8.813249242446068 -2 0 0
2468 547 1 -1.1128 12.853787621936084 1.1203076747327512 8.735243924445326 0 2 0
2470 547 2 0.5564 11.93908483841725 1.1760656367993887 9.011730485437871 0 2 0
492 2 4 0 12.2802 7.09 12.736959109302104 0 0 0
2942 705 1 -1.1128 11.301700134682443 4.916457579212798 9.176930472438473 0 -1 0
443 2 4 0 13.5083 2.127 12.736959109302104 0 0 0
1444 205 2 0.5564 7.279587943572606 2.8177082049753857 9.245007516601168 -2 0 0
2469 547 2 0.5564 12.86862551859682 0.4067500276588656 8.09739746640655 0 2 0
1443 205 2 0.5564 6.446008766283144 2.294080664744378 8.09485276202443 -2 0 0
495 2 4 0 13.5083 6.381 12.736959109302104 0 0 0
1404 192 2 0.5564 8.043339745033803 7.785759269762769 9.02361472199487 0 2 0
2943 705 2 0.5564 11.516849619898638 4.498547747823773 8.343086543641213 0 -1 0
491 2 4 0 11.0522 6.381 12.736959109302104 0 0 0
442 2 4 0 13.5083 0.709 12.736959109302104 0 0 0
437 2 4 0 12.2802 0 12.736959109302104 0 0 0
488 2 4 0 9.82419 7.09 12.736959109302104 0 0 0
438 2 4 0 11.0522 0.709 12.736959109302104 0 0 0
485 2 4 0 9.82419 4.254 12.736959109302104 0 0 0
439 2 4 0 11.0522 2.127 12.736959109302104 0 0 0
429 2 4 0 7.36814 0 12.736959109302104 0 0 0
487 2 4 0 8.59617 6.381 12.736959109302104 0 0 0
2099 424 1 -1.1128 6.900000101469515 6.4955757156112455 9.083207232510334 -1 -1 0
440 2 4 0 12.2802 2.836 12.736959109302104 0 0 0
436 2 4 0 9.82419 2.836 12.736959109302104 0 0 0
432 2 4 0 7.36814 2.836 12.736959109302104 0 0 0
1784 319 1 -1.1128 8.635805762175082 4.25801118900171 9.467286333223702 0 5 0
2944 705 2 0.5564 11.386807141483962 5.854132013446887 9.004431046347985 0 -1 0
2100 424 2 0.5564 6.695797716642607 6.698282725237589 8.170275059374799 -1 -1 0
1786 319 2 0.5564 8.395445920656528 4.4983746656053984 10.362098059865671 0 5 0
1785 319 2 0.5564 9.561891263172402 4.489699192734592 9.397093521168445 0 5 0
434 2 4 0 8.59617 0.709 12.736959109302104 0 0 0
433 2 4 0 9.82419 0 12.736959109302104 0 0 0
2278 483 2 0.5564 12.86335610385962 4.064446815924169 9.80461166293959 1 4 0
481 2 4 0 7.36814 4.254 12.736959109302104 0 0 0
490 2 4 0 11.0522 4.963 12.736959109302104 0 0 0
484 2 4 0 7.36814 7.09 12.736959109302104 0 0 0
1142 105 1 -1.1128 6.299470787270235 -0.5269193514812633 9.33512995297487 3 -1 0
105 1 3 0 0 8.508 -13.028967241974486 0 0 0
106 1 3 0 -1.22802 9.217 -13.028967241974486 0 0 0
107 1 3 0 -1.22802 10.635 -13.028967241974486 0 0 0
108 1 3 0 0 11.344 -13.028967241974486 0 0 0
109 1 3 0 2.45605 8.508 -13.028967241974486 0 0 0
110 1 3 0 1.22802 9.217 -13.028967241974486 0 0 0
111 1 3 0 1.22802 10.635 -13.028967241974486 0 0 0
112 1 3 0 2.45605 11.344 -13.028967241974486 0 0 0
113 1 3 0 4.9121 8.508 -13.028967241974486 0 0 0
114 1 3 0 3.68407 9.217 -13.028967241974486 0 0 0
115 1 3 0 3.68407 10.635 -13.028967241974486 0 0 0
116 1 3 0 4.9121 11.344 -13.028967241974486 0 0 0
118 1 3 0 6.14012 9.217 -13.028967241974486 0 0 0
119 1 3 0 6.14012 10.635 -13.028967241974486 0 0 0
157 1 3 0 0 12.762 -13.028967241974486 0 0 0
158 1 3 0 -1.22802 13.471 -13.028967241974486 0 0 0
159 1 3 0 -1.22802 14.889 -13.028967241974486 0 0 0
160 1 3 0 0 15.598 -13.028967241974486 0 0 0
161 1 3 0 2.45605 12.762 -13.028967241974486 0 0 0
162 1 3 0 1.22802 13.471 -13.028967241974486 0 0 0
163 1 3 0 1.22802 14.889 -13.028967241974486 0 0 0
164 1 3 0 2.45605 15.598 -13.028967241974486 0 0 0
165 1 3 0 4.9121 12.762 -13.028967241974486 0 0 0
166 1 3 0 3.68407 13.471 -13.028967241974486 0 0 0
167 1 3 0 3.68407 14.889 -13.028967241974486 0 0 0
168 1 3 0 4.9121 15.598 -13.028967241974486 0 0 0
170 1 3 0 6.14012 13.471 -13.028967241974486 0 0 0
171 1 3 0 6.14012 14.889 -13.028967241974486 0 0 0
1084 85 2 0.5564 -0.30577338661273373 12.450477804184343 -9.478020171548316 1 -2 0
1202 125 1 -1.1128 5.066228504673972 8.353963236362098 -8.521073635936581 2 2 0
2050 407 2 0.5564 1.3649418212246802 12.639087413886761 -7.929215212178925 -4 0 0
2048 407 1 -1.1128 1.3465767368538242 13.246267043342232 -8.668965622154639 -4 0 0