LAMMPS data file via write_data, version 2 Aug 2023, timestep = 7500000, units = real

5032 atoms
4 atom types
2800 bonds
1 bond types
1400 angles
1 angle types
0 impropers
1 improper types

-1.8420299999999998 30.08661 xlo xhi
-0.709 33.323 ylo yhi
-150 150 zlo zhi

Masses

1 15.9994
2 1.00794
3 12.0107
4 12.0107

Pair Coeffs # lj/cut/tip4p/long

1 0.1852 3.1589
2 0 0
3 0.0859 3.3997
4 0.0859 3.3997

Bond Coeffs # harmonic

1 5000 0.9572

Angle Coeffs # harmonic

1 500 104.52

Atoms # full

1 1 3 0 0 0 -19.086524130372066 0 0 0
2 1 3 0 -1.22802 0.709 -19.086524130372066 0 0 0
3 1 3 0 -1.22802 2.127 -19.086524130372066 0 0 0
4 1 3 0 0 2.836 -19.086524130372066 0 0 0
5 1 3 0 2.45605 0 -19.086524130372066 0 0 0
6 1 3 0 1.22802 0.709 -19.086524130372066 0 0 0
7 1 3 0 1.22802 2.127 -19.086524130372066 0 0 0
8 1 3 0 2.45605 2.836 -19.086524130372066 0 0 0
9 1 3 0 4.9121 0 -19.086524130372066 0 0 0
10 1 3 0 3.68407 0.709 -19.086524130372066 0 0 0
11 1 3 0 3.68407 2.127 -19.086524130372066 0 0 0
12 1 3 0 4.9121 2.836 -19.086524130372066 0 0 0
14 1 3 0 6.14012 0.709 -19.086524130372066 0 0 0
15 1 3 0 6.14012 2.127 -19.086524130372066 0 0 0
53 1 3 0 0 4.254 -19.086524130372066 0 0 0
54 1 3 0 -1.22802 4.963 -19.086524130372066 0 0 0
55 1 3 0 -1.22802 6.381 -19.086524130372066 0 0 0
56 1 3 0 0 7.09 -19.086524130372066 0 0 0
57 1 3 0 2.45605 4.254 -19.086524130372066 0 0 0
58 1 3 0 1.22802 4.963 -19.086524130372066 0 0 0
59 1 3 0 1.22802 6.381 -19.086524130372066 0 0 0
60 1 3 0 2.45605 7.09 -19.086524130372066 0 0 0
61 1 3 0 4.9121 4.254 -19.086524130372066 0 0 0
62 1 3 0 3.68407 4.963 -19.086524130372066 0 0 0
63 1 3 0 3.68407 6.381 -19.086524130372066 0 0 0
64 1 3 0 4.9121 7.09 -19.086524130372066 0 0 0
66 1 3 0 6.14012 4.963 -19.086524130372066 0 0 0
67 1 3 0 6.14012 6.381 -19.086524130372066 0 0 0
3227 800 1 -1.1128 -0.35529720318884017 1.7096067543871156 -14.505428244683765 1 1 0
3228 800 2 0.5564 -0.016530951247364447 2.3348853553625646 -15.146130179557565 1 1 0
3210 794 2 0.5564 1.3046453513594523 0.4132608836009861 -15.108042700626601 2 2 0
1475 216 1 -1.1128 3.6895438588372915 4.85978653999255 -15.717346186209436 -2 1 0
1477 216 2 0.5564 4.613543041186975 4.960175661740978 -15.488479703331052 -2 1 0
3119 764 1 -1.1128 9.37385152077948 7.544597068349935 -16.001457051086337 -7 2 0
3237 803 2 0.5564 3.193646358565743 6.93676502617134 -16.019743585579697 0 -2 0
3211 794 2 0.5564 2.605889661648228 0.9619811075109856 -15.653539866545485 2 2 0
3783 985 2 0.5564 -0.4982022772180514 5.962988276077585 -16.28408040247209 3 5 0
4979 1384 1 -1.1128 0.7039468683288211 4.083707004750158 -15.8125298733853 2 -2 0
4981 1384 2 0.5564 1.1565205400476488 4.053938467860111 -14.969602052762722 2 -2 0
1550 241 1 -1.1128 6.647739749327859 3.6569539013446883 -15.663580933647411 2 1 0
1551 241 2 0.5564 6.878494018189011 2.7279847473566092 -15.662448982480386 2 1 0
3373 848 2 0.5564 -1.7963077787157555 7.663717069987458 -11.285433466188682 3 -2 0
4980 1384 2 0.5564 1.294351298523311 4.57385248957453 -16.384730967407076 2 -2 0
3251 808 1 -1.1128 4.6142723789229185 6.675750493679783 -0.09896081693440331 2 2 0
1503 225 2 0.5564 -1.7328963975481135 5.062932121551564 -8.019411689542945 -1 -1 0
1014 62 2 0.5564 4.649037526400974 1.4879896352998605 -15.805897845970993 -1 1 0
4559 1244 1 -1.1128 -0.4995774536459593 1.609374545936841 -9.131479884779683 10 0 0
3027 733 2 0.5564 9.667734069548315 4.980980262975538 -0.153191728168918 3 3 0
13 1 3 0 7.36814 0 -19.086524130372066 0 0 0
16 1 3 0 7.36814 2.836 -19.086524130372066 0 0 0
17 1 3 0 9.82419 0 -19.086524130372066 0 0 0
18 1 3 0 8.59617 0.709 -19.086524130372066 0 0 0
19 1 3 0 8.59617 2.127 -19.086524130372066 0 0 0
20 1 3 0 9.82419 2.836 -19.086524130372066 0 0 0
21 1 3 0 12.2802 0 -19.086524130372066 0 0 0
22 1 3 0 11.0522 0.709 -19.086524130372066 0 0 0
23 1 3 0 11.0522 2.127 -19.086524130372066 0 0 0
24 1 3 0 12.2802 2.836 -19.086524130372066 0 0 0
26 1 3 0 13.5083 0.709 -19.086524130372066 0 0 0
27 1 3 0 13.5083 2.127 -19.086524130372066 0 0 0
65 1 3 0 7.36814 4.254 -19.086524130372066 0 0 0
68 1 3 0 7.36814 7.09 -19.086524130372066 0 0 0
69 1 3 0 9.82419 4.254 -19.086524130372066 0 0 0
70 1 3 0 8.59617 4.963 -19.086524130372066 0 0 0
71 1 3 0 8.59617 6.381 -19.086524130372066 0 0 0
72 1 3 0 9.82419 7.09 -19.086524130372066 0 0 0
73 1 3 0 12.2802 4.254 -19.086524130372066 0 0 0
74 1 3 0 11.0522 4.963 -19.086524130372066 0 0 0
75 1 3 0 11.0522 6.381 -19.086524130372066 0 0 0
76 1 3 0 12.2802 7.09 -19.086524130372066 0 0 0
78 1 3 0 13.5083 4.963 -19.086524130372066 0 0 0
79 1 3 0 13.5083 6.381 -19.086524130372066 0 0 0
1184 119 1 -1.1128 6.550007133268557 0.7043765888341154 -15.359128412429147 5 -2 0
1185 119 2 0.5564 7.027588226040999 1.0944948683895028 -14.627036590207585 5 -2 0
1552 241 2 0.5564 7.48905204219296 4.11323313438482 -15.648153731250007 2 1 0
3458 877 1 -1.1128 11.175367993188562 2.92528968454863 -15.603614110449838 3 -3 0
4526 1233 1 -1.1128 9.405225916182642 0.7217363924981292 -14.716149020800259 -1 0 0
4500 1224 2 0.5564 13.231141971113267 1.0790137143613991 -5.864047024438642 2 0 0
4307 1160 1 -1.1128 13.778041751817494 1.740112253685916 -15.942727616118322 -3 0 0
4528 1233 2 0.5564 9.642827225185725 0.4830660777215038 -13.82014617530541 -1 0 0
4211 1128 1 -1.1128 9.153693934793962 4.733025732743083 -15.224756992318326 1 2 0
4213 1128 2 0.5564 9.878853591927173 4.192539647375149 -15.53821516572922 1 2 0
4212 1128 2 0.5564 9.412304351883463 5.629347857719131 -15.439143477877531 1 2 0
4944 1372 2 0.5564 13.426903824632653 5.448161847178498 -13.910633830111554 0 1 0
4574 1249 1 -1.1128 -1.4019259376150834 -0.29296677131546706 -15.827574407488134 0 -1 0
2946 706 2 0.5564 1.7701762663158596 -0.6060675816582207 -9.213221252646383 4 -2 0
3203 792 1 -1.1128 3.498626644594259 7.064717014881309 -2.843978710140917 -3 -3 0
3460 877 2 0.5564 10.619181120466186 2.1500700160707327 -15.52664590074252 3 -3 0
2178 450 2 0.5564 6.617335818040019 6.913869783269425 -0.24717560457582724 -2 1 0
3229 800 2 0.5564 -0.7896908856838732 2.2520552183178935 -13.847184558262246 1 1 0
1201 124 2 0.5564 4.326284337950422 1.203233012548339 -14.00016351414425 2 2 0
1200 124 2 0.5564 5.493998126270539 0.9466444867068889 -13.07145098787273 2 2 0
4033 1068 2 0.5564 -0.41938334965519714 4.284843101011811 -11.421380983380127 1 0 0
4031 1068 1 -1.1128 0.27468569070193594 4.937266846425131 -11.327330737282557 1 0 0
4032 1068 2 0.5564 -0.17234030767909808 5.7784535942864705 -11.421199944533422 1 0 0
1675 282 2 0.5564 2.05863028644453 3.459050022986151 -13.071083277729638 2 1 0
843 5 2 0.5564 2.4172164772632754 3.109765096187829 -10.44905759042611 -1 -5 0
1674 282 2 0.5564 1.6400743676794802 4.87745466729275 -12.747301220006921 2 1 0
842 5 1 -1.1128 2.2731172656331293 3.9576481940771626 -10.028864202610922 -1 -5 0
1275 149 2 0.5564 1.5503404725010799 1.4737370376043764 -11.890403637021494 4 2 0
1274 149 1 -1.1128 2.340411237024897 2.0123266885892126 -11.846291679712696 4 2 0
1276 149 2 0.5564 3.0302792987358607 1.4565431023170434 -12.208816431715485 4 2 0
844 5 2 0.5564 1.4766047558059254 4.295945426554444 -10.437955428347356 -1 -5 0
1967 380 1 -1.1128 7.810530282601167 -0.39685396093474573 -10.36003907289088 -4 0 0
4023 1065 2 0.5564 6.852988843921237 3.9348389981090546 -8.093443709425932 -2 0 0
1673 282 1 -1.1128 2.0536253351967524 4.347048700966642 -13.428386611053442 2 1 0
2860 677 2 0.5564 4.735370086715656 4.55095102962246 -12.750985162152567 0 5 0
1476 216 2 0.5564 3.2439526265931726 4.756026135451775 -14.876563386629629 -2 1 0
1556 243 1 -1.1128 5.774000074540244 4.784328152966015 -7.004289659930009 3 5 0
1262 145 1 -1.1128 0.8263535805010076 6.601149410915345 -8.261333938707311 0 0 0
1263 145 2 0.5564 1.3483765188027925 6.502016135545976 -7.465155760042152 0 0 0
1264 145 2 0.5564 1.471026930312113 6.638415094528526 -8.967903301775921 0 0 0
2858 677 1 -1.1128 5.674781309656675 4.734135106394808 -12.7644901499682 0 5 0
2859 677 2 0.5564 6.071058093705264 3.9310329954907615 -13.102460957715392 0 5 0
4314 1162 2 0.5564 -1.5950195906820472 3.221548705684181 -9.266159585700853 3 2 0
2053 408 2 0.5564 3.586622853167097 5.284387721959299 -9.572784940065324 3 0 0
2947 706 2 0.5564 1.9360426368380876 0.8550939401372281 -9.572931358516287 4 -2 0
4561 1244 2 0.5564 -0.22005135702954343 1.555925636694776 -8.21756478378196 10 0 0
1557 243 2 0.5564 5.368538373745844 5.437817724078742 -7.574188448841135 3 5 0
1013 62 1 -1.1128 3.9407787124258493 2.067598589997537 -15.525439615028947 -1 1 0
1484 219 1 -1.1128 1.2481030962831277 -0.07881032377860994 -4.681908790190125 0 0 0
2443 538 2 0.5564 4.631855724101268 0.9253341618365488 -0.3027111784013495 -2 -5 0
3209 794 1 -1.1128 1.9764755491591168 0.25030272737125187 -15.770101383881338 2 2 0
2205 459 2 0.5564 5.598784801089707 1.134572596262415 -8.07397831842587 -2 3 0
3715 962 2 0.5564 6.301951504163376 6.401096210829159 -13.271035451373342 0 0 0
3976 1049 2 0.5564 8.880158071369884 1.3078570139085015 -0.38496749296292965 2 1 0
1199 124 1 -1.1128 4.538266170785959 0.9135068134549676 -13.112829890676663 2 2 0
3427 866 2 0.5564 14.110108455279466 6.553178199669941 -8.09587170638291 2 -3 0
2697 623 2 0.5564 -1.2012597118213846 -0.30517238939948566 -12.700452360426487 -3 -1 0
2605 592 2 0.5564 6.273470862450892 -0.1830160546471308 -0.16788996468826686 -3 6 0
1904 359 1 -1.1128 10.169036485825627 6.493460401946906 -7.032572555800283 -3 -1 0
2453 542 1 -1.1128 0.41830063255953714 -0.11950604473697234 -11.642279367461674 3 -1 0
4714 1295 2 0.5564 7.212040730556747 5.342315000470383 -6.101461924740694 -1 0 0
2051 408 1 -1.1128 4.239845267689883 5.872653298908666 -9.193997715799684 3 0 0
2204 459 1 -1.1128 6.5426192939883885 0.9751716144663046 -8.075425152571198 -2 3 0
2392 521 2 0.5564 7.967721432960129 2.0724708391083575 -12.56210606608435 2 3 0
4309 1160 2 0.5564 13.97986823936726 0.8144092226310413 -15.806444985049483 -3 0 0
2391 521 2 0.5564 7.399131767102961 0.9243645341552034 -11.755598062595993 2 3 0
4022 1065 1 -1.1128 7.558466682484736 3.570934097401202 -8.628334296823477 -2 0 0
4024 1065 2 0.5564 7.575689492353471 4.122589148809963 -9.41039109892691 -2 0 0
2798 657 1 -1.1128 10.198751287186226 2.772685388737072 -3.0627334625826026 -2 -4 0
2233 468 2 0.5564 11.668527617793284 0.6017930634983589 -12.768707681218958 1 4 0
1968 380 2 0.5564 7.523404789575872 0.09030239190447945 -9.587722580126695 -4 0 0
4527 1233 2 0.5564 9.304168986015211 -0.11561087085729672 -15.168774360922976 -1 0 0
4560 1244 2 0.5564 -1.2364688394525656 1.0015592801639108 -9.192997802964362 10 0 0
2601 591 2 0.5564 11.774707146763761 5.322503966611028 -9.80018092050015 2 5 0
2602 591 2 0.5564 12.94370329152418 4.765824027930634 -9.015672508076669 2 5 0
2600 591 1 -1.1128 12.523761253986219 4.731287813654671 -9.875142637944775 2 5 0
1335 169 2 0.5564 8.093760133770937 5.062911152110327 -11.561711594292573 4 -2 0
896 23 1 -1.1128 11.540715256377448 3.35973167488052 -12.185793010205721 1 -4 0
898 23 2 0.5564 12.18694213568542 2.683685466967713 -12.389724698752804 1 -4 0
897 23 2 0.5564 11.878734081800985 3.7848756179507532 -11.397611570663793 1 -4 0
1334 169 1 -1.1128 7.863636281077837 5.783795948122476 -10.975532523025475 4 -2 0
3822 998 2 0.5564 9.770595412476341 3.4483281042766443 -12.384666039297361 4 -1 0
4847 1340 1 -1.1128 10.045310690978095 -0.2224149883068357 -7.3746106093911425 4 5 0
3821 998 1 -1.1128 8.879680588516699 3.6752897471833896 -12.651109912227927 4 -1 0
3823 998 2 0.5564 8.944050462294928 3.8346508745533687 -13.592754039677448 4 -1 0
3865 1012 2 0.5564 11.611424203048559 0.6296695048981461 -8.78895178694862 5 2 0
1023 65 2 0.5564 13.628553307315398 1.973565761947544 -13.574356961179364 4 1 0
1022 65 1 -1.1128 13.394328833519706 1.514272100948068 -12.767870086102928 4 1 0
3864 1012 2 0.5564 11.852241511401763 0.6615109479590566 -10.283237235233726 5 2 0
1342 171 2 0.5564 13.69396600874744 1.9832486368438353 -8.956716874422382 2 -4 0
1336 169 2 0.5564 6.9082314352152245 5.828383904728508 -11.013558504376475 4 -2 0
2571 581 2 0.5564 8.554812640608725 7.477965332162949 -1.8704122601700073 2 -1 0
3126 766 2 0.5564 9.386264380307368 6.2377668511330295 -10.184027698654802 2 6 0
3125 766 1 -1.1128 10.254317305005328 6.2238450853637834 -9.780878579933477 2 6 0
2570 581 1 -1.1128 9.313252323942434 7.46746249374205 -2.454275278191831 2 -1 0
2177 450 1 -1.1128 7.548589751978958 7.034646118850179 -0.4326803456765596 -2 1 0
3863 1012 1 -1.1128 12.302935789192148 0.7365272591840906 -9.44211852277035 5 2 0
3473 882 1 -1.1128 11.526037611581431 4.093799526292546 -6.667425967436623 -1 4 0
3475 882 2 0.5564 11.946286583728986 4.025229938288992 -5.810150157845148 -1 4 0
3459 877 2 0.5564 12.051999256589788 2.57660472461799 -15.765386562823846 3 -3 0
3782 985 1 -1.1128 -1.0277850899703382 6.740794812184097 -16.108602350875433 3 5 0
2231 468 1 -1.1128 10.845187924240687 0.24622279437723477 -12.434171014647266 1 4 0
2390 521 1 -1.1128 7.214854908958308 1.4836253396894372 -12.510252741285006 2 3 0
1617 263 2 0.5564 13.647251516794881 5.1386584177607695 -11.510951647969533 -3 0 0
3713 962 1 -1.1128 6.426025547590965 7.350090071373849 -13.25526106667581 0 0 0
3136 769 2 0.5564 12.915057327527768 1.1670531472335228 -1.57819746063353 -3 0 0
3975 1049 2 0.5564 9.373565189437318 0.11240222215772766 -1.171945282932927 2 1 0
4945 1372 2 0.5564 12.182399153602583 5.066379550458599 -14.683517912328076 0 1 0
2206 459 2 0.5564 6.931613145008407 1.8386083381230478 -8.214690653996684 -2 3 0
1015 62 2 0.5564 4.029321654808615 2.841381374285292 -16.081904299439465 -1 1 0
4943 1372 1 -1.1128 12.908558762832392 5.689996457256831 -14.678144245040208 0 1 0
3636 936 2 0.5564 12.314004088105781 7.139763709489106 -1.3695877896891024 -2 2 0
2455 542 2 0.5564 -0.039434709131540034 0.24346014119205966 -10.88401336805583 3 -1 0
2882 685 1 -1.1128 9.492697823198684 2.425497072928241 -6.949685577085886 3 1 0
3205 792 2 0.5564 3.7036017208784204 6.236640498989507 -3.278153502810901 -3 -3 0
3833 1002 1 -1.1128 -0.39555298997178956 4.52918751716457 -2.26305448470902 -1 2 0
1069 80 2 0.5564 -1.740098811656183 3.6428955435712336 -3.038368637331791 2 1 0
1504 225 2 0.5564 -0.6468545060593608 6.032211648587497 -7.6035924941127195 -1 -1 0
1633 268 2 0.5564 4.018912007215163 7.335690744229781 -8.04947191179488 0 -1 0
4552 1241 2 0.5564 13.318033303479883 5.377796976445533 -4.045276638810879 -1 5 0
4104 1092 2 0.5564 -0.26925691108642597 2.3756524981127223 -6.493093388061386 -1 -5 0
4103 1092 1 -1.1128 -0.6125341333399442 1.4953280776405877 -6.340049837484916 -1 -5 0
4105 1092 2 0.5564 0.08604661282112427 1.0444225144491739 -5.865811747964856 -1 -5 0
2945 706 1 -1.1128 2.1002313634399825 0.22488134807039378 -8.871427984119396 4 -2 0
3687 953 2 0.5564 -1.578204117908912 6.681933204257788 -3.3026191070628133 1 0 0
4835 1336 1 -1.1128 7.726081234052822 2.549342178948005 -4.5117181295251125 0 0 0
4495 1222 2 0.5564 2.8501213456703547 3.9560189442249674 -3.4256180984016877 -2 3 0
4196 1123 1 -1.1128 2.5205377798490227 6.084691341243087 -5.800360181614138 1 -4 0
3835 1002 2 0.5564 0.4994745566876057 4.536183218583106 -2.602336971359707 -1 2 0
1566 246 2 0.5564 1.5245895352956307 4.0651502386372815 -6.457771786929355 1 -3 0
4900 1357 2 0.5564 1.636735023611304 7.265342948698723 -0.3368122181265745 4 -1 0
1616 263 1 -1.1128 14.118129807827286 5.214676640711884 -12.34084827391105 -3 0 0
4141 1104 2 0.5564 11.456589739347011 1.8542454138128923 -4.072191038522424 1 1 0
3371 848 1 -1.1128 -0.9975498306181588 7.252955264747857 -11.616336349368877 3 -2 0
1558 243 2 0.5564 5.246331715397233 3.9956794082566733 -7.13011777944989 3 5 0
3096 756 2 0.5564 1.3156394420261646 1.1792222182041678 -1.2610533806408435 -4 -2 0
4713 1295 2 0.5564 8.210342942284205 5.035367825191631 -5.0055269416029935 -1 0 0
3127 766 2 0.5564 10.601274578008647 7.103778379697558 -9.927750867756453 2 6 0
4493 1222 1 -1.1128 1.9329298606113587 3.6884720341655512 -3.367216229015061 -2 3 0
4494 1222 2 0.5564 1.9176071955814251 3.035052420389367 -2.667901260452836 -2 3 0
1565 246 1 -1.1128 1.4736885057464233 3.1342066143402643 -6.241008491607832 1 -3 0
2604 592 2 0.5564 6.556908811707648 0.03432690469864775 -1.6390541542256765 -3 6 0
1502 225 1 -1.1128 -1.5005470050297305 5.691744135016375 -7.336153352119032 -1 -1 0
1567 246 2 0.5564 1.4898586522442108 3.1093385275426293 -5.284266867589487 1 -3 0
958 43 2 0.5564 4.884664670201008 -0.1014360259706581 -5.046608574967823 0 0 0
2094 422 2 0.5564 12.195110845386024 7.429571340092536 -13.620402999913964 -2 -1 0
3135 769 2 0.5564 11.414745286020434 1.226338331326103 -1.77171578463334 -3 0 0
956 43 1 -1.1128 4.281697871803409 0.6226744471302251 -5.214918148248895 0 0 0
2106 426 2 0.5564 4.692242106560843 5.007070982962655 -4.64533724028464 2 -2 0
3097 756 2 0.5564 2.6358567773954684 1.747830667789225 -0.7860711113733468 -4 -2 0
957 43 2 0.5564 3.5232415189642294 0.43703135540092125 -4.661282113574884 0 0 0
1365 179 2 0.5564 4.306822217630967 1.9945894513820943 -6.433597154963597 2 2 0
1364 179 1 -1.1128 4.252527066495097 2.545544986231256 -7.214454385970774 2 2 0
1366 179 2 0.5564 3.3279912147835597 2.7860535423837685 -7.274650849564531 2 2 0
2105 426 1 -1.1128 4.669750265462113 4.799409916995086 -3.711204740968663 2 -2 0
3220 797 2 0.5564 6.985780823002099 7.319736025761184 -5.707035036754426 -3 2 0
3095 756 1 -1.1128 2.0122692865131686 1.786126265386586 -1.5112662034555198 -4 -2 0
1873 348 2 0.5564 7.352358649723013 4.011679040013239 -3.407331514774372 0 -4 0
1228 133 2 0.5564 3.738723581548099 -0.6682988668031198 -9.848521552727137 -4 3 0
3834 1002 2 0.5564 -0.2914475144464636 4.50185504546759 -1.3119251363352304 -1 2 0
2884 685 2 0.5564 10.32946751123863 2.8903055953818315 -6.947949352171687 3 1 0
4965 1379 2 0.5564 13.903755380205517 5.508183188492869 -1.8845003300515362 1 -2 0
4376 1183 1 -1.1128 1.012814065072735 7.284460659195995 -3.560718740335882 5 -2 0
1509 227 2 0.5564 -0.548861859134591 7.180496978856889 -0.7075139433742819 -4 3 0
1510 227 2 0.5564 -0.07011812611071165 7.569234255051086 -2.090114798579308 -4 3 0
4377 1183 2 0.5564 1.885195865071325 7.25648998704983 -3.167780364206631 5 -2 0
4837 1336 2 0.5564 7.537369881921557 1.7979064291866422 -3.9496087254641568 0 0 0
4575 1249 2 0.5564 -0.9678121095291407 0.5166492428288397 -15.558688312680713 0 -1 0
1186 119 2 0.5564 6.945439599664053 -0.1602293850853631 -15.470134631672366 5 -2 0
1819 330 2 0.5564 13.800584408490078 6.781997019578961 -15.749560746068864 -1 -3 0
1856 343 1 -1.1128 13.801883906814291 2.703875167047417 -0.6662311827560528 2 2 0
4966 1379 2 0.5564 13.700305145419376 4.794611222357391 -0.5649100639254001 1 -2 0
4849 1340 2 0.5564 9.807196223447423 0.6525698066800553 -7.068114507795229 4 5 0
4848 1340 2 0.5564 10.883523670370254 -0.4055051705902255 -6.95021515864101 4 5 0
2486 553 1 -1.1128 7.547761418656918 -0.1670744490901181 -3.2844720039412514 -2 -2 0
2052 408 2 0.5564 4.529131693133647 6.414589977104023 -9.928065660909594 3 0 0
3134 769 1 -1.1128 12.150702757577028 0.614962529928126 -1.7430995276841346 -3 0 0
3784 985 2 0.5564 -1.3378125712990443 6.622486509931974 -15.210761408392491 3 5 0
4198 1123 2 0.5564 3.145997263145242 6.713247600951379 -6.160847851770761 1 -4 0
1905 359 2 0.5564 10.048507153259417 6.320778003664337 -7.96632076954527 -3 -1 0
3425 866 1 -1.1128 13.933437787624456 7.398036802576779 -8.50968077662297 2 -3 0
3474 882 2 0.5564 11.139389749707235 4.9693948662778675 -6.675809798746401 -1 4 0
3026 733 1 -1.1128 8.870755927711043 4.589974520261714 -0.5112105587092545 3 3 0
3204 792 2 0.5564 3.8750272981512017 6.976191523153626 -1.9683542750061664 -3 -3 0
2107 426 2 0.5564 5.590307668867564 4.724889189449155 -3.4596939690579607 2 -2 0
2179 450 2 0.5564 7.918122371926432 6.152674703074182 -0.3901426240449913 -2 1 0
1404 192 2 0.5564 10.737371606213731 6.074389543618356 -3.445235413506412 -4 -3 0
1871 348 1 -1.1128 7.267868650250351 4.884441375802378 -3.023425900723481 0 -4 0
4197 1123 2 0.5564 2.140118624227047 6.531484303153824 -5.044125736515376 1 -4 0
4836 1336 2 0.5564 7.989316362822188 2.1638265626614297 -5.347372440686033 0 0 0
1906 359 2 0.5564 9.430289626258963 6.055226553408447 -6.610154926473916 -3 -1 0
4964 1379 1 -1.1128 13.569476490932677 5.638606722757947 -0.9970998730151363 1 -2 0
2603 592 1 -1.1128 5.839667182843288 -0.058921640325736706 -1.012075950009044 -3 6 0
2799 657 2 0.5564 9.955377228796157 2.3334193166433566 -2.24783939431075 -2 -4 0
3714 962 2 0.5564 7.375175639188941 7.467395971953227 -13.215439786893493 0 0 0
4140 1104 2 0.5564 11.704444707700743 0.4789724850285383 -4.654507117077811 1 1 0
1872 348 2 0.5564 7.796835056626799 4.84829568607639 -2.2264799799319204 0 -4 0
2800 657 2 0.5564 9.494022910496911 2.5545776122869284 -3.672670480158293 -2 -4 0
3974 1049 1 -1.1128 9.502702805120153 1.0549928439877023 -1.0666792651844186 2 1 0
4712 1295 1 -1.1128 8.0418537262455 5.639762772524355 -5.728403865250265 -1 0 0
3637 936 2 0.5564 10.976194172613306 7.738331147746444 -1.748905223325727 -2 2 0
4139 1104 1 -1.1128 11.655232606937442 1.4045493186585432 -4.893500779293169 1 1 0
1405 192 2 0.5564 11.2309955293974 4.749679310200696 -2.9035945918192816 -4 -3 0
1403 192 1 -1.1128 11.45292461262988 5.443566785340059 -3.5244851948141998 -4 -3 0
2883 685 2 0.5564 8.96806247499731 2.8782216927068243 -7.6100114703498445 3 1 0
3120 764 2 0.5564 8.472370360359992 7.757189725925193 -16.243058743426765 -7 2 0
3665 946 1 -1.1128 4.985411855225112 7.769649965917919 -10.982166496816584 -1 -3 0
2787 653 2 0.5564 11.739135027870471 7.644009649185048 -6.228525193720013 2 -2 0
1486 219 2 0.5564 1.3889935118924477 -0.3522090551404702 -3.775466894223891 0 0 0
2487 553 2 0.5564 6.76377840198543 -0.6868305744921486 -3.461841456032647 -2 -2 0
2232 468 2 0.5564 11.00634013341155 -0.693528002124566 -12.349723761728317 1 4 0
3028 733 2 0.5564 8.82273283057042 3.725880576976412 -0.10222677604763092 3 3 0
848 7 1 -1.1128 1.9551446129831689 4.374571756546219 2.068694942661045 -3 -2 0
849 7 2 0.5564 2.8127041235795733 4.393177279340343 1.6438607350148586 -3 -2 0
3522 898 2 0.5564 0.5556097632830381 5.125728173613002 0.9057354762656014 3 -1 0
850 7 2 0.5564 2.0017885471855235 5.061518511508474 2.733648055393645 -3 -2 0
3239 804 1 -1.1128 10.738707594716757 6.102313575597226 0.8858655238186527 -3 -1 0
4805 1326 1 -1.1128 4.990069990814763 6.531638911201487 5.236101192057291 2 2 0
2739 637 2 0.5564 -0.33008934552442354 7.180101675904715 1.7052316619166794 1 -3 0
3190 787 2 0.5564 3.2475609216000607 5.850913394303183 4.776834493699908 0 0 0
2552 575 1 -1.1128 -1.7834799053872255 2.219312452359388 13.816605262746808 -1 -2 0
1079 84 1 -1.1128 1.4897116295697423 4.429002450036228 7.090267536957625 -2 2 0
1080 84 2 0.5564 0.6078907514360716 4.179021976616465 6.814338119399485 -2 2 0
3188 787 1 -1.1128 2.2930090793157905 5.816239191391802 4.714681743799896 0 0 0
1081 84 2 0.5564 1.7596313104479213 5.094411184822847 6.45733076536195 -2 2 0
3523 898 2 0.5564 -0.93271706464489 5.181628365279972 1.1771346299711607 3 -1 0
3521 898 1 -1.1128 -0.26301870565502866 5.4859293196979335 0.5646492822094076 3 -1 0
4925 1366 1 -1.1128 6.645353775401059 0.3870910186879045 10.343684889314641 0 -3 0
3189 787 2 0.5564 2.0197321179495042 6.733539623867311 4.704003214961767 0 0 0
4266 1146 2 0.5564 4.977253096436192 4.130394828060939 1.707281361740657 1 1 0
2562 578 2 0.5564 0.7900346437526549 -0.6186254452669186 12.019103715366077 -3 2 0
2150 441 1 -1.1128 2.809703058788468 0.49654292761648877 5.14741334744637 0 0 0
2151 441 2 0.5564 2.2652825475959197 1.0217106418285378 4.560866365852657 0 0 0
2152 441 2 0.5564 2.6187953504938744 0.8372608363337206 6.021312836398534 0 0 0
2416 529 2 0.5564 1.5641645955599282 2.7443305666245412 2.612256850370379 4 -1 0
3881 1018 1 -1.1128 11.079559103625451 7.271569073929727 13.380029352548533 -2 0 0
2414 529 1 -1.1128 1.2463449221495446 1.9089326888741187 2.954804509986629 4 -1 0
2415 529 2 0.5564 1.5748400775082574 1.2556871574360569 2.3370721037545814 4 -1 0
2952 708 2 0.5564 8.190420506185127 6.436763801179812 13.045143571227909 1 1 0
4267 1146 2 0.5564 4.596515003430704 3.3105258075752273 0.4928853498214021 1 1 0
4563 1245 2 0.5564 -0.18035402149082008 7.252955925648543 5.614272783481122 4 3 0
3570 914 2 0.5564 6.58108812972821 5.311108608420483 5.653013805513652 4 -3 0
1310 161 1 -1.1128 6.7626434552231665 4.134221750313128 2.5574670634105554 1 1 0
1311 161 2 0.5564 6.876239916908852 4.082170608249541 3.506481874193448 1 1 0
1312 161 2 0.5564 7.377007097833854 3.489533897241238 2.2065114077304613 1 1 0
3466 879 2 0.5564 -0.9467394403169371 7.437725700908267 9.136261046908382 2 -3 0
1100 91 1 -1.1128 13.53314334398601 1.6001027569219555 11.72135419821519 -2 0 0
3569 914 1 -1.1128 7.188546597863217 4.743086943624626 5.179116554043968 4 -3 0
3465 879 2 0.5564 -0.5519391645841244 5.992776099959076 8.916830463853676 2 -3 0
2246 473 1 -1.1128 2.4621389956094175 6.580799701544892 12.938144972620188 1 1 0
3591 921 2 0.5564 6.202032863195915 2.9321585487385238 7.777443138173321 -4 3 0
4100 1091 1 -1.1128 -1.2708582916188733 3.7151845803732155 6.714194441726313 0 -2 0
1847 340 1 -1.1128 13.638220947169378 2.78842946485777 19.587638808463016 -5 6 0
2625 599 2 0.5564 3.416535998025984 6.902531726371424 15.699002073437187 3 -2 0
491 2 4 0 11.0522 6.381 22.709149600932808 0 0 0
2442 538 2 0.5564 3.9746739932361583 0.8411495514105356 1.0585091682741328 -2 -5 0
495 2 4 0 13.5083 6.381 22.709149600932808 0 0 0
3692 955 1 -1.1128 7.977263333861526 6.682081668696345 2.3066238170772406 -1 1 0
4047 1073 2 0.5564 -0.930882211686279 0.5767338229000258 19.089849794692004 0 0 0
3694 955 2 0.5564 7.496560533180875 5.854343778471859 2.3037064351986687 -1 1 0
2395 522 2 0.5564 13.761770231465931 7.12059203669748 17.308928054645516 -1 3 0
1788 320 2 0.5564 -0.7906123279306186 5.772567043771812 4.029381564614971 2 0 0
4806 1326 2 0.5564 4.374646678542046 6.956093601112489 5.833870172726481 2 2 0
4348 1173 2 0.5564 -0.42256264297153845 1.9180282876036157 15.482764071402475 -2 -3 0
3693 955 2 0.5564 8.130550987051809 6.873843241328942 1.3814413469621587 -1 1 0
492 2 4 0 12.2802 7.09 22.709149600932808 0 0 0
2532 568 2 0.5564 -0.5926933456380538 2.337279574500033 3.100635038031314 5 -1 0
3343 838 2 0.5564 12.573888197138755 0.7215935869525417 7.631029580663423 -1 0 0
1368 180 2 0.5564 9.039616511508061 7.756868773834335 6.978360247267227 0 1 0
1206 126 2 0.5564 -0.8512392156380345 -0.16830371734766147 7.064935192784075 2 2 0
5003 1392 1 -1.1128 10.901238311380595 -0.30075564372619595 7.2608653635753235 3 1 0
2238 470 2 0.5564 10.374010931802365 -0.2593313471756147 11.141744544516225 3 -1 0
1664 279 1 -1.1128 8.530674594829739 2.2323932085051874 1.4055217657749353 2 1 0
3537 903 2 0.5564 13.699450804250331 2.431112193355324 2.8440812305901795 -2 -2 0
2247 473 2 0.5564 2.3874899785496893 7.3857106127542576 12.425524928423146 1 1 0
1665 279 2 0.5564 9.404342188440884 2.2042913916102838 1.7955866318492077 2 1 0
1920 364 2 0.5564 11.271918034029403 2.7707995552551776 2.6766995526323853 0 -1 0
4865 1346 1 -1.1128 13.026529528777699 5.283312332744121 2.584961711990279 0 4 0
4128 1100 2 0.5564 12.935056504038263 3.697290277719636 5.031536661498729 0 -1 0
4127 1100 1 -1.1128 12.87370725363881 4.586686024914603 5.380025603531623 0 -1 0
4129 1100 2 0.5564 12.777591592507635 4.468081468603449 6.324974419219767 0 -1 0
488 2 4 0 9.82419 7.09 22.709149600932808 0 0 0
1919 364 1 -1.1128 10.520534897958482 2.81255863872244 3.2682334506713326 0 -1 0
1921 364 2 0.5564 10.309197352504219 3.7445701357697607 3.322330280829787 0 -1 0
1787 320 1 -1.1128 -1.381551068290409 5.5250115132278985 3.3182252062426345 2 0 0
4807 1326 2 0.5564 5.483144535114847 7.25376727159552 4.846690767806278 2 2 0
4866 1346 2 0.5564 13.047114214724695 5.315269542273484 3.541408059074857 0 4 0
4867 1346 2 0.5564 13.734492924230961 5.865948985682592 2.3100803075558725 0 4 0
1831 334 2 0.5564 10.407402421491845 6.10166356998253 3.9498272998080344 3 -3 0
1829 334 1 -1.1128 9.743005194356684 5.427961024880488 3.8051418734630613 3 -3 0
1666 279 2 0.5564 8.097798617610625 1.442423141064369 1.7292536394651654 2 1 0
3571 914 2 0.5564 7.9581898387417835 5.290777260480118 5.024464416956698 4 -3 0
3536 903 1 -1.1128 13.30467693652612 2.871018029474519 2.091174261149843 -2 -2 0
3538 903 2 0.5564 13.295260670375987 3.79732263471289 2.3322245046770513 -2 -2 0
4564 1245 2 0.5564 -0.8372324155460429 6.591981082816097 6.807386365160456 4 3 0
1495 222 2 0.5564 10.930100817462009 0.4019283832928249 3.8460332744175427 2 2 0
1830 334 2 0.5564 9.104997206148774 5.841126786429666 3.2233576927015717 3 -3 0
2219 464 1 -1.1128 6.8384631189198934 6.997869128005409 16.4097568886226 -3 -1 0
4046 1073 1 -1.1128 -0.13693291619186268 0.11268394316070135 19.355434038024285 0 0 0
2701 624 2 0.5564 6.535323043439387 0.0697356728169127 2.5230556133635598 -1 2 0
437 2 4 0 12.2802 0 22.709149600932808 0 0 0
4694 1289 1 -1.1128 11.269454522746145 7.575546389228761 4.7428446353192015 -3 2 0
3448 873 2 0.5564 12.841966709517363 1.2066727610480041 4.689155554795994 -2 -1 0
3592 921 2 0.5564 6.644887818441365 3.212515570262599 6.357169788079472 -4 3 0
3590 921 1 -1.1128 6.66660446140406 2.5400923364178674 7.038057901158155 -4 3 0
3252 808 2 0.5564 4.7903710188817294 5.750124358157353 0.06968526394281059 2 2 0
2393 522 1 -1.1128 13.420254388905954 6.226726272924599 17.28435993775638 -1 3 0
1205 126 1 -1.1128 -0.8490994970173776 -0.46037571115871695 6.1533851465717415 2 2 0
3708 960 2 0.5564 7.7036023783910395 0.9928327565014232 7.355368275527348 -1 -3 0
3447 873 2 0.5564 14.084280778644212 1.6776384255166406 5.414926338783003 -2 -1 0
3341 838 1 -1.1128 13.306651688429918 1.3313930461415584 7.544791379688678 -1 0 0
3709 960 2 0.5564 7.815070621570418 -0.5164015624695687 7.396388347572528 -1 -3 0
4265 1146 1 -1.1128 4.424022172558984 4.146364597340215 0.9263060868661823 1 1 0