LAMMPS data file via write_data, version 2 Aug 2023, timestep = 6750000, units = real

3832 atoms
4 atom types
2000 bonds
1 bond types
1000 angles
1 angle types
0 impropers
1 improper types

-1.8420299999999998 30.08661 xlo xhi
-0.709 33.323 ylo yhi
-150 150 zlo zhi

Masses

1 15.9994
2 1.00794
3 12.0107
4 12.0107

Pair Coeffs # lj/cut/tip4p/long

1 0.1852 3.1589
2 0 0
3 0.0859 3.3997
4 0.0859 3.3997

Bond Coeffs # harmonic

1 5000 0.9572

Angle Coeffs # harmonic

1 500 104.52

Atoms # full

1 1 3 0 0 0 -14.519096394668605 0 0 0
2 1 3 0 -1.22802 0.709 -14.519096394668605 0 0 0
3 1 3 0 -1.22802 2.127 -14.519096394668605 0 0 0
4 1 3 0 0 2.836 -14.519096394668605 0 0 0
5 1 3 0 2.45605 0 -14.519096394668605 0 0 0
6 1 3 0 1.22802 0.709 -14.519096394668605 0 0 0
7 1 3 0 1.22802 2.127 -14.519096394668605 0 0 0
8 1 3 0 2.45605 2.836 -14.519096394668605 0 0 0
9 1 3 0 4.9121 0 -14.519096394668605 0 0 0
10 1 3 0 3.68407 0.709 -14.519096394668605 0 0 0
11 1 3 0 3.68407 2.127 -14.519096394668605 0 0 0
12 1 3 0 4.9121 2.836 -14.519096394668605 0 0 0
14 1 3 0 6.14012 0.709 -14.519096394668605 0 0 0
15 1 3 0 6.14012 2.127 -14.519096394668605 0 0 0
53 1 3 0 0 4.254 -14.519096394668605 0 0 0
54 1 3 0 -1.22802 4.963 -14.519096394668605 0 0 0
55 1 3 0 -1.22802 6.381 -14.519096394668605 0 0 0
56 1 3 0 0 7.09 -14.519096394668605 0 0 0
57 1 3 0 2.45605 4.254 -14.519096394668605 0 0 0
58 1 3 0 1.22802 4.963 -14.519096394668605 0 0 0
59 1 3 0 1.22802 6.381 -14.519096394668605 0 0 0
60 1 3 0 2.45605 7.09 -14.519096394668605 0 0 0
61 1 3 0 4.9121 4.254 -14.519096394668605 0 0 0
62 1 3 0 3.68407 4.963 -14.519096394668605 0 0 0
63 1 3 0 3.68407 6.381 -14.519096394668605 0 0 0
64 1 3 0 4.9121 7.09 -14.519096394668605 0 0 0
66 1 3 0 6.14012 4.963 -14.519096394668605 0 0 0
67 1 3 0 6.14012 6.381 -14.519096394668605 0 0 0
2547 573 2 0.5564 5.896214055288677 2.641485330839307 -8.33662515090522 4 2 0
843 5 2 0.5564 2.236618934927619 2.820177479302947 -11.7765610485715 3 -5 0
842 5 1 -1.1128 2.3843919060568783 3.6890330597858463 -11.40308173525586 3 -5 0
844 5 2 0.5564 2.513082285874905 3.529611118128288 -10.468061834675021 3 -5 0
2307 493 2 0.5564 6.929710303242889 4.749761455595745 -11.17280637278297 2 -2 0
2308 493 2 0.5564 7.8824695937902876 3.5864168558686167 -11.34823613691379 2 -2 0
2306 493 1 -1.1128 7.861329962587192 4.5341453955567275 -11.215585457328272 2 -2 0
2953 708 2 0.5564 3.7104772726908393 -0.09237419323354007 -7.608841804609328 -2 -2 0
3082 751 2 0.5564 5.533936075859057 4.934507138926774 -7.133362587797002 1 2 0
3080 751 1 -1.1128 4.833521678718557 4.3277412430402835 -7.373130980364133 1 2 0
3608 927 1 -1.1128 1.493401978047282 0.7711854842652304 -11.377118857321836 3 1 0
3610 927 2 0.5564 1.0865811941306496 0.30233218003493834 -10.648484385569242 3 1 0
1727 300 1 -1.1128 6.2376872178819145 0.27692483639188703 -10.55556940456369 -2 3 0
3081 751 2 0.5564 4.456436524149489 4.05403359503449 -6.536991704276628 1 2 0
1729 300 2 0.5564 6.447922867183435 1.0154511762873917 -9.984068010936499 -2 3 0
3609 927 2 0.5564 2.133831467438811 0.15443747039818367 -11.731669242332504 3 1 0
3147 773 2 0.5564 1.261198503553304 5.153660515498309 -11.353109494925654 1 1 0
2081 418 1 -1.1128 2.4650952033409887 3.5156012701281427 -8.703372329306037 -1 0 0
2450 541 1 -1.1128 -1.1380665798722582 6.464517756687803 -1.4850422964510495 2 2 0
3146 773 1 -1.1128 0.732129131013514 5.917212072659897 -11.122220377870898 1 1 0
3461 878 1 -1.1128 -0.011345872895441728 7.343628523464049 -7.874251816698537 -2 -1 0
3720 964 2 0.5564 -1.3087081308729014 -0.5822444961901199 -3.678279679116525 -3 -1 0
2082 418 2 0.5564 3.1704687219277186 4.10244641196616 -8.430792525330029 -1 0 0
3462 878 2 0.5564 -0.23519778409666603 6.945856798025253 -7.032883063558408 -2 -1 0
1925 366 1 -1.1128 -1.4180510761237082 2.564334393080901 -1.0965991457048307 3 -1 0
1984 385 2 0.5564 1.288965939844833 7.517439365426025 -11.257736365679943 4 -1 0
3148 773 2 0.5564 0.5923469249273686 5.835920554589102 -10.178777091515553 1 1 0
2185 452 2 0.5564 4.5203342038033405 1.1306481370397212 -2.8721793455163827 4 0 0
1422 198 2 0.5564 10.240445390332063 7.392745075725911 -2.078619829000997 1 -4 0
2891 688 1 -1.1128 -0.4381383580049113 1.7829571087727818 -8.373444008593111 0 -1 0
2531 568 1 -1.1128 4.888193946843357 5.081257288310696 -11.358280865662957 4 -2 0
2083 418 2 0.5564 2.817049192340765 2.6364204863058376 -8.564074488093974 -1 0 0
2947 706 2 0.5564 13.347742925757746 1.5663593761311623 -5.76045645255595 2 -1 0
876 16 2 0.5564 6.857355384513983 0.8877782348523632 -7.236595710100782 2 -1 0
1327 166 2 0.5564 11.388483901788609 7.602742630215089 -10.865739860456378 2 -3 0
2133 435 2 0.5564 7.376110406991944 1.1680518041110912 -3.199370999820107 -3 0 0
2160 444 2 0.5564 12.924631456541217 -0.3074909957397284 -5.502913766466224 4 -1 0
2446 539 2 0.5564 12.70775483815464 4.589450169007014 -7.101598910770163 3 2 0
2546 573 1 -1.1128 6.707311562240504 2.160135505157706 -8.499897892784297 4 2 0
2548 573 2 0.5564 7.389548643101113 2.831537587341701 -8.497023661647953 4 2 0
2880 684 2 0.5564 10.792312417132223 2.0955222299964036 -8.799895766182509 -3 -3 0
3576 916 2 0.5564 11.557372420270092 1.753431203316228 -11.982995529303905 1 0 0
3577 916 2 0.5564 10.883938219206835 1.8986744585730813 -10.634927470224738 1 0 0
944 39 1 -1.1128 12.868129753397922 6.740863548607568 -10.317724634425298 1 -2 0
2252 475 1 -1.1128 8.380734191965415 4.4813407265840866 -8.635081588758876 0 -4 0
2254 475 2 0.5564 8.28684187905369 4.647994071307466 -9.572979658036324 0 -4 0
13 1 3 0 7.36814 0 -14.519096394668605 0 0 0
16 1 3 0 7.36814 2.836 -14.519096394668605 0 0 0
17 1 3 0 9.82419 0 -14.519096394668605 0 0 0
18 1 3 0 8.59617 0.709 -14.519096394668605 0 0 0
19 1 3 0 8.59617 2.127 -14.519096394668605 0 0 0
20 1 3 0 9.82419 2.836 -14.519096394668605 0 0 0
21 1 3 0 12.2802 0 -14.519096394668605 0 0 0
22 1 3 0 11.0522 0.709 -14.519096394668605 0 0 0
23 1 3 0 11.0522 2.127 -14.519096394668605 0 0 0
24 1 3 0 12.2802 2.836 -14.519096394668605 0 0 0
26 1 3 0 13.5083 0.709 -14.519096394668605 0 0 0
27 1 3 0 13.5083 2.127 -14.519096394668605 0 0 0
65 1 3 0 7.36814 4.254 -14.519096394668605 0 0 0
68 1 3 0 7.36814 7.09 -14.519096394668605 0 0 0
69 1 3 0 9.82419 4.254 -14.519096394668605 0 0 0
70 1 3 0 8.59617 4.963 -14.519096394668605 0 0 0
71 1 3 0 8.59617 6.381 -14.519096394668605 0 0 0
72 1 3 0 9.82419 7.09 -14.519096394668605 0 0 0
73 1 3 0 12.2802 4.254 -14.519096394668605 0 0 0
74 1 3 0 11.0522 4.963 -14.519096394668605 0 0 0
75 1 3 0 11.0522 6.381 -14.519096394668605 0 0 0
76 1 3 0 12.2802 7.09 -14.519096394668605 0 0 0
78 1 3 0 13.5083 4.963 -14.519096394668605 0 0 0
79 1 3 0 13.5083 6.381 -14.519096394668605 0 0 0
2881 684 2 0.5564 10.019080379116701 3.392149070300083 -8.912892645561033 -3 -3 0
2253 475 2 0.5564 8.769260819736404 5.2836865910904764 -8.286483739239035 0 -4 0
2879 684 1 -1.1128 10.876733943174218 3.004599729880616 -9.087447017670216 -3 -3 0
3575 916 1 -1.1128 10.807808418096576 1.4445464788087716 -11.474098239898142 1 0 0
2171 448 1 -1.1128 0.777891702873093 -0.6099719061000471 -8.928618727908164 6 0 0
946 39 2 0.5564 12.7619192726596 6.4192897170915915 -9.422435807436202 1 -2 0
2948 707 1 -1.1128 10.059502588609718 0.13308896387359773 -8.477710288263712 3 0 0
1815 329 2 0.5564 13.115678459001408 0.6719300332352993 -2.260465386599641 -2 1 0
2445 539 2 0.5564 12.092808128910786 4.173918547369491 -8.421095232476743 3 2 0
1421 198 1 -1.1128 10.421869946921666 7.261823069046366 -3.009307927146059 1 -4 0
2444 539 1 -1.1128 12.747088515751066 4.761106461026861 -8.042460299142395 3 2 0
2952 708 2 0.5564 2.291519854088312 -0.061747007201914464 -8.135641342405238 -2 -2 0
2950 707 2 0.5564 10.56696796022311 -0.6761164465571823 -8.415245767152047 3 0 0
877 16 2 0.5564 7.153548476829026 -0.4665867840050504 -6.62842958937524 2 -1 0
2892 688 2 0.5564 -0.37887204941779984 2.160124257761383 -9.251205141746292 0 -1 0
1965 379 2 0.5564 9.696195069125512 0.1923947686582415 -6.60320444660404 4 1 0
1869 347 2 0.5564 -1.5682822658498694 5.597551628450882 -11.293185128954011 -1 0 0
922 31 2 0.5564 12.161580526258088 7.336576565323909 -3.732958863374036 -2 3 0
1966 379 2 0.5564 10.436470505945975 1.2045320809818951 -5.75498998580428 4 1 0
1676 283 1 -1.1128 4.365612721307538 6.880556964914101 -9.12786375291146 -2 1 0
3366 846 2 0.5564 -1.3210463971652788 7.271477649422598 -4.587771253991747 2 -4 0
1884 352 2 0.5564 1.0057566599287533 0.8099981071988144 -5.725972531888229 -3 3 0
2452 541 2 0.5564 -0.45984928205854464 5.7897240533054175 -1.4548780107832846 2 2 0
1885 352 2 0.5564 2.304048363291242 1.283657592821017 -6.344019041609037 -3 3 0
2627 600 1 -1.1128 8.822931447700297 -0.5619947803163979 -11.030921554997175 4 2 0
2571 581 2 0.5564 1.5231451208619233 5.214522594239997 -2.39806032479583 -3 0 0
920 31 1 -1.1128 13.093079256702318 7.301886318413198 -3.950542128149324 -2 3 0
2134 435 2 0.5564 8.563939859222598 0.9789818341798658 -4.118723687185761 -3 0 0
2077 416 2 0.5564 6.141568636017905 6.817660382024306 -6.0248056300596815 0 -2 0
2075 416 1 -1.1128 5.703369305263233 7.342092748099346 -6.695018924643019 0 -2 0
1883 352 1 -1.1128 1.5886543321152475 1.56766536174546 -5.77499907726513 -3 3 0
3247 806 2 0.5564 14.020548795897733 5.672320197388523 -4.526330020889707 -3 2 0
1582 251 2 0.5564 9.40941862076018 0.08584548513011273 -2.035298560168693 1 -6 0
1350 174 2 0.5564 6.541025323891139 5.540782879364122 -3.8948631084168905 0 3 0
1912 361 2 0.5564 4.267858479318887 2.6997236500532207 -1.9282293080635273 -1 -2 0
1871 348 1 -1.1128 14.05539408051999 7.012560183107322 -1.2017644525710285 4 2 0
1412 195 1 -1.1128 6.019017350017393 5.126010217059562 -2.0748534099444482 6 0 0
1349 174 1 -1.1128 6.690773610057466 5.616269984353142 -4.837258873599343 0 3 0
1809 327 2 0.5564 0.8467718999017827 3.3018063601357226 -6.20770579321947 1 1 0
1808 327 1 -1.1128 0.4434383564307755 3.8613512894430935 -6.871382352198188 1 1 0
3365 846 1 -1.1128 -0.8202679017964358 7.72305641413029 -3.908409395956649 2 -4 0
2184 452 2 0.5564 4.606812058773211 2.25326653788222 -3.884180195071896 4 0 0
1910 361 1 -1.1128 3.9278500611572986 3.296379895519561 -1.26142148098282 -1 -2 0
1581 251 2 0.5564 10.873044380209256 0.2753906973950133 -1.6980036262317337 1 -6 0
2367 513 2 0.5564 1.0006456430980037 7.286122459436517 -3.5474266836700123 1 0 0
2368 513 2 0.5564 2.3697933773456246 7.266753338437135 -4.193150068027426 1 0 0
2366 513 1 -1.1128 1.8829581794154442 6.930649649853931 -3.4406465016597245 1 0 0
2572 581 2 0.5564 1.7315740416222813 4.086640538860468 -1.409962977130286 -3 0 0
2570 581 1 -1.1128 1.130436360291775 4.798014413441042 -1.6309004030484737 -3 0 0
3378 850 2 0.5564 5.014290331923232 4.750285481441916 -4.327578665928376 -3 -4 0
1413 195 2 0.5564 5.957743047970761 5.900037811072738 -1.5150642646291859 6 0 0
1810 327 2 0.5564 1.1501231222536483 4.048322830324592 -7.48934116179048 1 1 0
1838 337 1 -1.1128 5.953986868148405 7.5639942023105124 -0.7554389762014664 3 -4 0
3377 850 1 -1.1128 4.253724664955246 4.309885450461921 -4.706814629669502 -3 -4 0
2695 622 2 0.5564 0.1694856556721823 1.3436918894776293 -1.8256665763581104 1 1 0
3379 850 2 0.5564 3.5601585569516523 4.96929390003367 -4.687346114668645 -3 -4 0
1414 195 2 0.5564 5.254353176993623 4.599749393755892 -1.8412430064081897 6 0 0
1752 308 2 0.5564 5.337500567164391 -0.4620894116021066 -5.665606178833465 -4 1 0
1911 361 2 0.5564 4.151050539631096 2.878848740748662 -0.42950692754386105 -1 -2 0
2974 715 2 0.5564 10.427839780474617 4.601710131489446 -5.941233745034702 0 2 0
945 39 2 0.5564 13.348525752765138 6.045498852521977 -10.767080236437847 1 -2 0
2893 688 2 0.5564 -0.0024030966064927106 2.4208393876788414 -7.808224145860524 0 -1 0
2550 574 2 0.5564 2.339723557564896 0.22614041247618583 -2.801046592243132 -2 3 0
2945 706 1 -1.1128 12.427490764036119 1.421804530037706 -5.540285319406407 2 -1 0
1279 150 2 0.5564 -1.3488785788983833 3.5060201126542885 -11.106866092616317 -1 3 0
2183 452 1 -1.1128 5.085869511388201 1.8463700328216295 -3.1622578841880995 4 0 0
3686 953 1 -1.1128 -1.3656367727617036 3.0561809574838135 -3.6736722159144097 2 -1 0
3367 846 2 0.5564 -1.107294172850855 7.318474087079446 -3.0897725121957977 2 -4 0
3688 953 2 0.5564 -0.5910728189487247 3.4336619846067715 -4.0905549502545195 2 -1 0
1926 366 2 0.5564 -1.437786218766341 2.8842754206412806 -1.9985311585770043 3 -1 0
1728 300 2 0.5564 7.088460645396234 -0.08835220597712658 -10.798456629395025 -2 3 0
3723 965 2 0.5564 4.54528069450331 -0.3977153256301517 -10.96179202601496 -2 1 0
2926 699 2 0.5564 -1.827564703187992 2.1378389471471926 -6.6406900384949505 5 -2 0
3598 923 2 0.5564 10.098334600301781 4.342813305359772 -2.6095815136588287 -1 0 0
1157 110 1 -1.1128 -1.7259210672343541 -0.15389856479316155 -11.093930569671448 0 -4 0
1843 338 2 0.5564 10.091637580402057 7.00773819070489 -7.436748934602753 3 0 0
833 2 1 -1.1128 8.326757628752034 3.7501640866672754 -2.0954598003829847 -3 2 0
3691 954 2 0.5564 12.41250511521104 3.832033354903496 -1.4273302166568824 0 2 0
1842 338 2 0.5564 9.18908962227318 6.872625324632437 -6.228838651108601 3 0 0
1014 62 2 0.5564 12.848836749455886 -0.053300729533673416 -11.516068693381406 0 -2 0
1278 150 2 0.5564 -0.2586018335170696 2.650148695330619 -11.715698407103883 -1 3 0
1814 329 1 -1.1128 12.416330403652266 1.3093151325448362 -2.115946440266431 -2 1 0
1677 283 2 0.5564 4.703385709816507 6.786124976203931 -8.237231083859164 -2 1 0
2824 665 2 0.5564 9.218844526189391 3.4263183053202337 -5.297913454190643 2 5 0
2951 708 1 -1.1128 3.1168900771124632 0.4226168418527523 -8.155349293250458 -2 -2 0
1964 379 1 -1.1128 9.714379222222476 0.5768197281791845 -5.726779260806942 4 1 0
2532 568 2 0.5564 4.749205637604052 5.733842584739098 -10.671951510978074 4 -2 0
2533 568 2 0.5564 4.042479084851961 4.641641780400099 -11.446245218021126 4 -2 0
3689 954 1 -1.1128 13.038851186493003 3.7951555785145166 -0.7044433562759603 0 2 0
875 16 1 -1.1128 6.833572472303881 0.4083231366559382 -6.4084709693626145 2 -1 0
2946 706 2 0.5564 12.123358573698585 2.2681313504264926 -5.2124636013024315 2 -1 0
835 2 2 0.5564 8.164525985925247 2.9221967004418055 -2.5475482334916637 -3 2 0
1351 174 2 0.5564 7.300924086129011 4.907396082497213 -5.040843271641495 0 3 0
3721 964 2 0.5564 0.02293816938483123 -0.4575347762276537 -2.9690116417750634 -3 -1 0
1873 348 2 0.5564 13.568951165962208 7.160304347536294 -2.0127990647265754 4 2 0
2823 665 2 0.5564 8.284142005248292 2.2669027893285065 -5.5699120043491686 2 5 0
2693 622 1 -1.1128 0.8977644869921781 0.7229946657348866 -1.8015988821793545 1 1 0
3597 923 2 0.5564 11.0211088591071 5.386706283315071 -3.201757522429779 -1 0 0
2132 435 1 -1.1128 8.322588886439451 1.025301667127031 -3.19360907338054 -3 0 0
1816 329 2 0.5564 12.737092463596754 1.8596668886704555 -1.4014834442069921 -2 1 0
1277 150 1 -1.1128 -1.0957355591559355 2.594838511527104 -11.254851448483091 -1 3 0
3690 954 2 0.5564 12.679039949316909 4.387999864262705 -0.04466745372974314 0 2 0
834 2 2 0.5564 7.4573912086354825 4.058073036858119 -1.8392784185971072 -3 2 0
2549 574 1 -1.1128 3.0136865184206556 -0.3259823629231792 -3.197493590619546 -2 3 0
1841 338 1 -1.1128 9.752695816926302 6.365504465640449 -6.813140836140752 3 0 0
909 27 2 0.5564 7.663246680669783 7.269349734744653 -4.736168492069267 1 0 0
2628 600 2 0.5564 9.490892653008743 0.06182082160522656 -11.315380776575784 4 2 0
2694 622 2 0.5564 1.216197989219018 0.7615013647709127 -0.8997383790394945 1 1 0
2972 715 1 -1.1128 10.86583895173134 3.8528468879221056 -5.536765391567734 0 2 0
3596 923 1 -1.1128 11.015118388100223 4.503358026877107 -2.833120070941597 -1 0 0
2973 715 2 0.5564 10.931661261722638 4.084903094363105 -4.610452426849338 0 2 0
2822 665 1 -1.1128 8.37174556038867 3.060960114938483 -5.042624802101009 2 5 0
3724 965 2 0.5564 3.3991327640352877 -0.2740472173151753 -9.980492258506278 -2 1 0
1580 251 1 -1.1128 10.169886872144788 -0.37380645722355865 -1.6794326116690097 1 -6 0
1159 110 2 0.5564 -1.4953393124586345 0.75605832583656 -11.281129324150378 0 -4 0
2856 676 2 0.5564 7.974454092314827 6.738234027438984 -11.464578797927102 -3 -4 0
1423 198 2 0.5564 9.616011428231564 7.529789226544454 -3.4509178143189065 1 -4 0
2949 707 2 0.5564 9.315080666303315 -0.09292269983583334 -9.03537416295278 3 0 0
3214 795 2 0.5564 6.455627064008353 0.9190320941218274 -0.2444139195286531 3 1 0
2173 448 2 0.5564 0.25492485408382065 0.15752744233412816 -8.696907276115615 6 0 0
1678 283 2 0.5564 4.853962196880825 7.618536130627505 -9.492745741782256 -2 1 0
1895 356 1 -1.1128 10.141304829932526 7.73042240997457 -0.2303490155923975 0 -1 0
905 26 1 -1.1128 14.048668550472446 4.480667648717391 -11.050603671987933 2 0 0
2855 676 1 -1.1128 7.89653655468335 7.63651630451975 -11.143251049733756 -3 -4 0
3654 942 2 0.5564 2.257458809595261 5.724051847810974 -0.0693308776062766 -2 0 0
906 26 2 0.5564 13.972638725162396 4.243317552993858 -10.126418673734387 2 0 0
2026 399 2 0.5564 1.8041836836068128 2.9706670449461825 2.4491411883903975 3 0 0
1834 335 2 0.5564 0.6597217444509191 4.616329806916525 3.857060884218247 -2 1 0
433 2 4 0 9.82419 0 16.74620659931785 0 0 0
1832 335 1 -1.1128 0.5687666293420315 5.418577283763447 4.371224567717941 -2 1 0
1833 335 2 0.5564 1.40741355979411 5.867728569116669 4.2655404735046805 -2 1 0
2024 399 1 -1.1128 1.0963262361930386 3.003301327814767 3.092651311998122 3 0 0
1454 209 1 -1.1128 3.853809453665035 1.5013287819650973 1.2507195480676443 -2 2 0
1456 209 2 0.5564 3.3492989804538436 0.6962110509386248 1.1345769061087814 -2 2 0
1487 220 1 -1.1128 4.263580396151453 4.69146125655781 3.1073859356798494 -2 -1 0
1489 220 2 0.5564 3.706410726067243 5.451697850412256 3.2742293839611443 -2 -1 0
1488 220 2 0.5564 4.901165463612367 4.9980790419458625 2.4626330679405606 -2 -1 0
3399 857 2 0.5564 4.918368123941815 0.6645972817904442 3.6851846220142805 0 4 0
1305 159 2 0.5564 0.3321124988537939 4.522858477842603 5.983916124032547 3 -2 0
3398 857 1 -1.1128 4.484444989657586 1.4682494406720787 3.97169308879201 0 4 0
1304 159 1 -1.1128 0.28283483201546555 3.7507465497408106 6.547519461899764 3 -2 0
2681 618 1 -1.1128 -1.2520498224816707 7.25935985385581 13.234940847452219 2 3 0
3639 937 2 0.5564 0.2769117363519534 0.2551738730142769 4.668470370394905 4 -3 0
3228 800 2 0.5564 2.556525623529551 6.6941011644062165 2.470311875606992 -1 0 0
1455 209 2 0.5564 3.9596679265286987 1.5835912644274535 2.1984870398207805 -2 2 0
3227 800 1 -1.1128 2.5892252267986726 6.986899318554279 3.3810444998000078 -1 0 0
3130 767 2 0.5564 1.853138502368236 0.17025518057634476 12.160036369678732 0 2 0
1275 149 2 0.5564 4.252993631490334 4.389506766716279 4.773687122890958 1 4 0
2992 721 2 0.5564 13.815120008968911 3.404416847389687 11.744757321755698 2 1 0
1306 159 2 0.5564 -0.5785784434086454 3.3752299026189916 6.36534367133478 3 -2 0
1568 247 1 -1.1128 10.13057165139908 -0.44360130309512863 1.3028119105545752 2 1 0
1276 149 2 0.5564 3.278187019300354 3.9776305029505012 5.856279271821592 1 4 0
1917 363 2 0.5564 2.7890539197694193 5.822531298372261 6.900407049569742 0 0 0
1274 149 1 -1.1128 3.9831241511196547 4.597260331612601 5.668249623081477 1 4 0
429 2 4 0 7.36814 0 16.74620659931785 0 0 0
1630 267 2 0.5564 13.909726999377678 6.845845672618916 1.8635284672220698 2 1 0
3285 819 2 0.5564 14.048955065554889 -0.2879282159961687 0.690693277711853 -1 1 0
2025 399 2 0.5564 0.9188663844849481 2.086042305777396 3.3009338054352195 3 0 0
3509 894 1 -1.1128 -1.6282529925811207 7.283991945322479 4.414538999730066 7 4 0
3001 724 2 0.5564 12.057849421961235 0.705881212928446 1.1529407324214371 2 1 0
3682 951 2 0.5564 8.232764876301376 5.735670704639837 13.840211292631967 1 1 0
3638 937 1 -1.1128 0.5187515122973215 0.43988597277356656 3.7609307397675855 4 -3 0
3510 894 2 0.5564 -0.8005688780037704 6.85571089176361 4.633049184097989 7 4 0
3213 795 2 0.5564 5.539217141242272 1.5386459652099167 0.7891078800879456 3 1 0
3219 797 2 0.5564 1.7262548760646454 2.253510898996504 5.640879134602094 -2 4 0
3218 797 1 -1.1128 2.632009541910065 2.138781170418164 5.928416312888492 -2 4 0
3220 797 2 0.5564 3.0762415552316478 1.7522804032693398 5.1737570568867115 -2 4 0
2283 485 2 0.5564 -0.9083851969012211 -0.5392872986596885 6.897043949263904 3 1 0
3624 932 2 0.5564 1.2863016388207826 3.4861073304929513 8.18364481448099 1 0 0
1916 363 1 -1.1128 2.3230116913337295 6.209079751571679 7.641769076169846 0 0 0
1918 363 2 0.5564 2.185979158706641 5.479399850557314 8.245939318111143 0 0 0
495 2 4 0 13.5083 6.381 16.74620659931785 0 0 0
1628 267 1 -1.1128 13.275570959970961 6.295810931868084 1.4035919565962278 2 1 0
432 2 4 0 7.36814 2.836 16.74620659931785 0 0 0
1897 356 2 0.5564 10.237036164102605 6.940049169388786 0.30104988703658925 0 -1 0
1075 82 2 0.5564 -0.8220362779420659 3.26336402839955 1.8815568445029136 0 1 0
481 2 4 0 7.36814 4.254 16.74620659931785 0 0 0
488 2 4 0 9.82419 7.09 16.74620659931785 0 0 0
2744 639 1 -1.1128 7.938506208292313 1.4785898601413578 2.6050511060781902 -3 1 0
1570 247 2 0.5564 9.648507352391631 0.33260623580865567 1.5880276341064314 2 1 0
3400 857 2 0.5564 5.192188296845452 2.014064941151745 4.3143548864667345 0 4 0
3129 767 2 0.5564 2.986405787727589 0.11931181788629501 13.162536923349622 0 2 0
1922 365 1 -1.1128 6.219056158962619 -0.4252286277409536 3.3573736194842327 -3 1 0
2597 590 1 -1.1128 11.894154229322146 -0.15241843591962392 5.584951025654561 0 1 0
2545 572 2 0.5564 5.687773533531807 5.077533478257211 6.022762615037176 -1 -1 0
2371 514 2 0.5564 6.955419052456157 5.31104632366589 1.5176684703979566 3 2 0
2543 572 1 -1.1128 6.611208600740869 5.307110578615784 6.126686350213648 -1 -1 0
2340 504 2 0.5564 11.571511006920076 5.959853761883011 1.8218238007970713 5 -2 0
3042 738 2 0.5564 9.494402313136053 2.6660083854098318 2.1011061513527416 1 1 0
2999 724 1 -1.1128 12.837690434804053 1.227648474364453 1.3422550285050596 2 1 0
2369 514 1 -1.1128 6.32294795726739 5.973241165544129 1.7964350315452495 3 2 0
2746 639 2 0.5564 7.476148968955236 1.9692581258253534 3.284543298302812 -3 1 0
1188 120 2 0.5564 11.160526503957987 2.4340316281848087 3.356065630033924 -1 -1 0
3549 907 2 0.5564 9.518430306229266 0.8103926475997435 7.4892785511927755 0 5 0
3043 738 2 0.5564 10.184190334121801 3.9559052937542147 1.7109075541455931 1 1 0
3381 851 2 0.5564 6.918903744051351 6.86737599148335 3.450717268018023 -1 2 0
3380 851 1 -1.1128 7.08818975360668 7.284643606106908 4.295384371714768 -1 2 0
3041 738 1 -1.1128 10.351976697414653 3.0286553444446223 1.8790984879593395 1 1 0
3320 831 1 -1.1128 7.936291428939299 0.8985773553477472 6.622627631406278 2 -1 0
2346 506 2 0.5564 7.0095319356963435 3.7925934817697637 5.032294617219254 0 -2 0
3321 831 2 0.5564 7.483466087149206 1.2039685434776002 7.408706236293215 2 -1 0
2347 506 2 0.5564 7.3909006848661285 2.367667121153982 5.372942274652951 0 -2 0
3000 724 2 0.5564 12.595959045920814 1.7522695103770936 2.1055187788788543 2 1 0
2544 572 2 0.5564 6.7435612466898585 6.044853604204076 5.531323066918929 -1 -1 0
3550 907 2 0.5564 10.947558400381753 0.5254538426052175 7.079030579107639 0 5 0
1238 137 1 -1.1128 11.003448173325095 3.858172755313941 6.139643341499084 -2 -3 0
1240 137 2 0.5564 10.959096420182883 3.087569325998246 5.573572527096223 -2 -3 0
1239 137 2 0.5564 11.616218067703716 4.445775337056371 5.697523814210607 -2 -3 0
3322 831 2 0.5564 7.898017294888329 -0.056180040297659786 6.679274682188443 2 -1 0
2345 506 1 -1.1128 6.965813938609697 2.896748459676768 4.697953950484595 0 -2 0
2360 511 1 -1.1128 12.86751157940912 7.1583746940452695 11.284358427897873 3 1 0
1569 247 2 0.5564 9.902967958547926 -0.5411527454618766 0.37819678242468513 2 1 0
2599 590 2 0.5564 11.849085214914416 0.6274701743962459 5.031801061275617 0 1 0
2682 618 2 0.5564 -1.7481844477762678 7.217333375744334 12.417433541666695 2 3 0
1189 120 2 0.5564 12.510705364736394 2.577217665341955 4.025710358132646 -1 -1 0
1187 120 1 -1.1128 11.702204606573805 2.06558603894859 4.053969616366827 -1 -1 0
3653 942 1 -1.1128 2.426730051278554 6.371152560106903 0.6153885603021217 -2 0 0
1608 260 2 0.5564 2.3582326799838333 7.666549332033011 8.570487537863942 0 0 0
1172 115 1 -1.1128 12.494328161422262 6.2163260318241305 5.610592437632431 1 -2 0
3212 795 1 -1.1128 6.422559778626989 1.6016129855124686 0.4258264747567108 3 1 0
2341 504 2 0.5564 10.21628259406415 6.266870028700305 2.422650532746705 5 -2 0
487 2 4 0 8.59617 6.381 16.74620659931785 0 0 0
2339 504 1 -1.1128 10.633088704297123 5.900456996762451 1.642748717020306 5 -2 0
856 9 2 0.5564 7.933235159440112 4.379131758605243 7.435263406693763 -3 1 0
490 2 4 0 11.0522 4.963 16.74620659931785 0 0 0
2245 472 2 0.5564 11.7388712251931 4.180019055871428 7.838433212586843 2 6 0
2370 514 2 0.5564 6.20317730343773 6.529712445422639 1.0268723451508066 3 2 0
435 2 4 0 8.59617 2.127 16.74620659931785 0 0 0
3038 737 1 -1.1128 4.668555399505054 6.360049768223558 9.889298086469507 2 0 0
1173 115 2 0.5564 11.77000171723132 6.573265136748961 5.096608992277705 1 -2 0
1969 380 2 0.5564 0.3248336125929957 1.4265838934251978 12.822051020085336 3 0 0
1603 258 2 0.5564 1.9874700284098974 7.144081413434136 13.39209691746142 -3 -1 0
3508 893 2 0.5564 3.9629698448704205 -0.25930821688738553 6.186425724699309 -2 1 0
3123 765 2 0.5564 -0.9819346482530442 4.93791559301917 9.93589646927069 4 1 0
3229 800 2 0.5564 1.9203989769532859 7.669300882501327 3.437898596944336 -1 0 0
439 2 4 0 11.0522 2.127 16.74620659931785 0 0 0
3122 765 1 -1.1128 -0.18547084936116975 5.387782964280489 10.217848995630757 4 1 0
3205 792 2 0.5564 -1.835257862655747 4.386033450239957 13.548828190222874 -2 0 0
1629 267 2 0.5564 13.471694637130053 6.42768699363704 0.4760245909196621 2 1 0
1829 334 1 -1.1128 3.6906201088901147 0.7204044312724247 8.11228490829547 0 1 0
1830 334 2 0.5564 3.07685687342524 1.2876872525406426 7.645681751115722 0 1 0
2112 428 2 0.5564 2.320712423939588 0.7867281777665451 9.949718131647325 3 3 0
1967 380 1 -1.1128 -0.11101599009542201 1.911525609235721 12.121264831305766 3 0 0
3005 726 1 -1.1128 9.726615040387673 7.114846795009783 3.926258404928851 -2 2 0
2111 428 1 -1.1128 1.5707755277711812 0.40114155558159353 10.40265558897498 3 3 0
1968 380 2 0.5564 0.30007425955053063 1.593257784965183 11.317556240030054 3 0 0
2259 477 2 0.5564 2.989085161489228 4.761527524820157 13.050614059692585 3 0 0
2258 477 1 -1.1128 2.4320158504533995 5.5379787761883446 13.105670654894816 3 0 0
3569 914 1 -1.1128 4.872548481424134 0.8709725554813629 13.106657296365507 -1 -1 0
3571 914 2 0.5564 4.787717561018192 0.3031571070314468 12.340744364261424 -1 -1 0
2808 660 2 0.5564 0.06433818012340865 3.618166960000531 12.881583597023447 2 2 0
2809 660 2 0.5564 -0.33151907234058847 4.977965286669408 12.346661849219915 2 2 0
2807 660 1 -1.1128 -0.09673919384197194 4.521378317836004 13.154522691492774 2 2 0
3625 932 2 0.5564 0.916489041233274 4.215877883856132 9.457447158532174 1 0 0
3623 932 1 -1.1128 1.4079409136988092 3.4613625093340126 9.132763701344496 1 0 0
3376 849 2 0.5564 3.252321739388388 3.4679764255510572 9.856793321956685 2 -2 0
3570 914 2 0.5564 5.58785773667178 0.48585147114348226 13.61286642713745 -1 -1 0
883 18 2 0.5564 4.536913835605084 2.621176201409042 12.972030363213944 1 2 0
882 18 2 0.5564 4.254205183733192 3.4701425292007593 11.750871867994274 1 2 0
3374 849 1 -1.1128 4.1706885466674235 3.7344174565711654 9.899754439951346 2 -2 0
2260 477 2 0.5564 1.5433955639683268 5.190773309615132 13.1833928978856 3 0 0
881 18 1 -1.1128 4.425246564972011 3.5292932219457227 12.690807171965211 1 2 0
3375 849 2 0.5564 4.141325038589358 4.68992924717687 9.948495950842613 2 -2 0
1831 334 2 0.5564 4.463042571921436 1.2677004711175495 8.253948227751977 0 1 0
1585 252 2 0.5564 11.382898734097463 -0.4955208107089028 10.476678970731912 0 3 0
1613 262 1 -1.1128 7.453027579254982 -0.47066543455415494 13.64017255322216 -4 3 0
1426 199 2 0.5564 6.169829820452648 3.8325783665621964 12.919841266126214 -2 -2 0
3640 937 2 0.5564 -0.17524318651103027 0.03519789924653494 3.2405124297395274 4 -3 0
491 2 4 0 11.0522 6.381 16.74620659931785 0 0 0
3124 765 2 0.5564 -0.4335414892529065 6.3113276545196175 10.259778982720778 4 1 0
1377 183 2 0.5564 5.0565019466555805 6.691417815693687 12.902811085752441 -2 -1 0
3058 743 2 0.5564 5.599320313013484 2.6794482279794787 9.256306905622262 -3 1 0
3056 743 1 -1.1128 6.017915342043076 1.929752548981918 8.833258672532413 -3 1 0
3039 737 2 0.5564 5.320579962338394 6.681802912057077 9.266745086406004 2 0 0
3040 737 2 0.5564 4.966772992927085 6.685299160661639 10.738718806477918 2 0 0
3007 726 2 0.5564 8.795466959131488 7.2924466011649365 4.05914741676698 -2 2 0
440 2 4 0 12.2802 2.836 16.74620659931785 0 0 0
486 2 4 0 8.59617 4.963 16.74620659931785 0 0 0
3293 822 1 -1.1128 12.012209882195465 7.166524827525767 8.109324907893358 -1 2 0
1174 115 2 0.5564 12.390125255958777 6.609208003263965 6.477207425334756 1 -2 0
1027 66 2 0.5564 6.167705621973402 6.615409646116238 7.547460927536557 -1 2 0
3295 822 2 0.5564 11.186176989918295 7.645327943023869 8.177514648948225 -1 2 0
2113 428 2 0.5564 1.447762507440556 -0.44972855393054884 9.981794890255577 3 3 0
2683 618 2 0.5564 -1.430605786751611 6.424210947468644 13.667232752347289 2 3 0
3548 907 1 -1.1128 10.39380986754239 0.6633816257946954 7.84751818125274 0 5 0
3680 951 1 -1.1128 8.392241200117065 6.556349900577493 13.374071504118675 1 1 0
2990 721 1 -1.1128 13.618849389433803 3.4673012799955027 12.67950795777504 2 1 0
1923 365 2 0.5564 6.8446961918290965 0.15442927830150335 2.9228517341688676 -3 1 0
1615 262 2 0.5564 7.92383485659409 0.3462571354602467 13.475203107876354 -4 3 0
434 2 4 0 8.59617 0.709 16.74620659931785 0 0 0
2085 419 2 0.5564 7.981145006238951 -0.11172333270860471 10.616085543288314 2 -2 0
854 9 1 -1.1128 8.66265079376009 4.067240328197091 7.970902132507867 -3 1 0
1820 331 1 -1.1128 1.5828872395275748 0.023929512913542644 0.9243744639113675 3 0 0