LAMMPS data file via write_data, version 2 Aug 2023, timestep = 7250000, units = real

3832 atoms
4 atom types
2000 bonds
1 bond types
1000 angles
1 angle types
0 impropers
1 improper types

-1.8420299999999998 30.08661 xlo xhi
-0.709 33.323 ylo yhi
-150 150 zlo zhi

Masses

1 15.9994
2 1.00794
3 12.0107
4 12.0107

Pair Coeffs # lj/cut/tip4p/long

1 0.1852 3.1589
2 0 0
3 0.0859 3.3997
4 0.0859 3.3997

Bond Coeffs # harmonic

1 5000 0.9572

Angle Coeffs # harmonic

1 500 104.52

Atoms # full

1 1 3 0 0 0 -14.519096394668605 0 0 0
2 1 3 0 -1.22802 0.709 -14.519096394668605 0 0 0
3 1 3 0 -1.22802 2.127 -14.519096394668605 0 0 0
4 1 3 0 0 2.836 -14.519096394668605 0 0 0
5 1 3 0 2.45605 0 -14.519096394668605 0 0 0
6 1 3 0 1.22802 0.709 -14.519096394668605 0 0 0
7 1 3 0 1.22802 2.127 -14.519096394668605 0 0 0
8 1 3 0 2.45605 2.836 -14.519096394668605 0 0 0
9 1 3 0 4.9121 0 -14.519096394668605 0 0 0
10 1 3 0 3.68407 0.709 -14.519096394668605 0 0 0
11 1 3 0 3.68407 2.127 -14.519096394668605 0 0 0
12 1 3 0 4.9121 2.836 -14.519096394668605 0 0 0
14 1 3 0 6.14012 0.709 -14.519096394668605 0 0 0
15 1 3 0 6.14012 2.127 -14.519096394668605 0 0 0
53 1 3 0 0 4.254 -14.519096394668605 0 0 0
54 1 3 0 -1.22802 4.963 -14.519096394668605 0 0 0
55 1 3 0 -1.22802 6.381 -14.519096394668605 0 0 0
56 1 3 0 0 7.09 -14.519096394668605 0 0 0
57 1 3 0 2.45605 4.254 -14.519096394668605 0 0 0
58 1 3 0 1.22802 4.963 -14.519096394668605 0 0 0
59 1 3 0 1.22802 6.381 -14.519096394668605 0 0 0
60 1 3 0 2.45605 7.09 -14.519096394668605 0 0 0
61 1 3 0 4.9121 4.254 -14.519096394668605 0 0 0
62 1 3 0 3.68407 4.963 -14.519096394668605 0 0 0
63 1 3 0 3.68407 6.381 -14.519096394668605 0 0 0
64 1 3 0 4.9121 7.09 -14.519096394668605 0 0 0
66 1 3 0 6.14012 4.963 -14.519096394668605 0 0 0
67 1 3 0 6.14012 6.381 -14.519096394668605 0 0 0
1127 100 1 -1.1128 1.9232887753734929 0.08664932734354483 -11.102337473316648 4 4 0
2157 443 2 0.5564 0.6894697402915542 4.259761090587592 -8.926980821182836 2 2 0
2216 463 1 -1.1128 2.9830696765377556 3.848926781675032 -11.330483413171635 0 -3 0
2218 463 2 0.5564 3.0811522030354563 3.8922490043542433 -10.379307210540738 0 -3 0
1710 294 2 0.5564 1.2113591762586773 2.8615759840767723 -11.203854736017506 -2 0 0
2217 463 2 0.5564 3.8068306594853305 3.472109059195598 -11.63977094524191 0 -3 0
1709 294 1 -1.1128 0.47003384380295676 2.2680624167757073 -11.323926235400092 -2 0 0
1711 294 2 0.5564 -0.21150617226026064 2.812132191678358 -11.718545870118351 -2 0 0
1868 347 1 -1.1128 4.1675231000206905 2.763369089492415 -8.624833180734157 -2 0 0
1870 347 2 0.5564 3.4280490914776727 2.4469392014150637 -8.105904840073087 -2 0 0
2443 538 2 0.5564 4.567702397301434 1.689572979250348 -9.902278504349797 3 2 0
3106 759 2 0.5564 1.8752171859946876 6.300237347512224 -9.342378938907007 -4 3 0
2442 538 2 0.5564 3.998100816479688 0.6976619153532702 -10.894025916135757 3 2 0
2441 538 1 -1.1128 4.80627501034609 1.1532364676634839 -10.658359670057964 3 2 0
1375 182 2 0.5564 13.961688295196662 4.330595792053221 -8.148818187901657 -4 0 0
1129 100 2 0.5564 1.487418036744212 0.8837556822524572 -11.403791460835118 4 4 0
3463 878 2 0.5564 6.868136099574508 1.5533205154388834 -10.595385794078704 -2 -1 0
3152 775 1 -1.1128 2.947823691333278 6.087340269868749 -8.015090753994343 -4 -1 0
1761 311 2 0.5564 -0.22961331777483324 6.797427282727936 -10.761523369911256 1 1 0
3104 759 1 -1.1128 1.3891590477677473 6.363350270362346 -10.164569114239832 -4 3 0
3105 759 2 0.5564 1.8778723984354353 5.8115540315457626 -10.775235383566757 -4 3 0
1200 124 2 0.5564 6.604459039063461 6.468458631707112 -9.257819339381362 2 2 0
1199 124 1 -1.1128 5.731334476310217 6.772630968169935 -9.01009527671842 2 2 0
3236 803 1 -1.1128 13.588369100519664 2.887516000069124 -11.119914019936383 -2 0 0
1095 89 2 0.5564 13.773583710332424 1.237948626790398 -11.445351237740875 -4 -2 0
1101 91 2 0.5564 1.92956517561982 0.426798550852137 -8.004738783025 -1 0 0
3020 731 1 -1.1128 6.490029578211459 4.292850842477275 -1.7693533284659593 -2 0 0
2156 443 1 -1.1128 0.0899949933796881 3.8476379917994947 -8.30487374743559 2 2 0
2158 443 2 0.5564 -0.3050191342721254 3.1260582334475497 -8.79428171725768 2 2 0
2524 565 2 0.5564 1.2370078034544267 2.7958181210903406 -7.535148567407593 -1 0 0
892 21 2 0.5564 12.00537382091686 -0.009822497434976544 -4.233590193089863 1 1 0
1762 311 2 0.5564 -1.729121907895425 6.943243331762463 -10.612786019864354 1 1 0
2601 591 2 0.5564 11.39975053249897 7.0332785961168875 -4.760241011179789 5 -2 0
1094 89 1 -1.1128 13.597762589572262 0.2998814677742258 -11.518532363373609 -4 -2 0
2338 503 2 0.5564 8.417352819253633 0.32895395156247886 -6.386994964121217 -2 0 0
1869 347 2 0.5564 4.795393092223643 3.0839144590569307 -7.977325817292354 -2 0 0
1919 364 1 -1.1128 8.389437293153659 4.174210421627681 -11.519180000656531 -2 5 0
1920 364 2 0.5564 8.18559694332518 4.59859839826103 -12.352592292769911 -2 5 0
891 21 2 0.5564 12.486129276572113 1.0510530307963104 -3.2664742510823475 1 1 0
2962 711 2 0.5564 10.21322251171747 4.158216450955578 -11.608660468576517 -2 0 0
3462 878 2 0.5564 7.943461113243207 2.4753961224936445 -11.129568437851935 -2 -1 0
3461 878 1 -1.1128 7.816511335582728 1.6291862411501348 -10.700560262235166 -2 -1 0
3653 942 1 -1.1128 11.729491110345245 6.984510251199407 -10.660348123515154 -3 0 0
13 1 3 0 7.36814 0 -14.519096394668605 0 0 0
16 1 3 0 7.36814 2.836 -14.519096394668605 0 0 0
17 1 3 0 9.82419 0 -14.519096394668605 0 0 0
18 1 3 0 8.59617 0.709 -14.519096394668605 0 0 0
19 1 3 0 8.59617 2.127 -14.519096394668605 0 0 0
20 1 3 0 9.82419 2.836 -14.519096394668605 0 0 0
21 1 3 0 12.2802 0 -14.519096394668605 0 0 0
22 1 3 0 11.0522 0.709 -14.519096394668605 0 0 0
23 1 3 0 11.0522 2.127 -14.519096394668605 0 0 0
24 1 3 0 12.2802 2.836 -14.519096394668605 0 0 0
26 1 3 0 13.5083 0.709 -14.519096394668605 0 0 0
27 1 3 0 13.5083 2.127 -14.519096394668605 0 0 0
65 1 3 0 7.36814 4.254 -14.519096394668605 0 0 0
68 1 3 0 7.36814 7.09 -14.519096394668605 0 0 0
69 1 3 0 9.82419 4.254 -14.519096394668605 0 0 0
70 1 3 0 8.59617 4.963 -14.519096394668605 0 0 0
71 1 3 0 8.59617 6.381 -14.519096394668605 0 0 0
72 1 3 0 9.82419 7.09 -14.519096394668605 0 0 0
73 1 3 0 12.2802 4.254 -14.519096394668605 0 0 0
74 1 3 0 11.0522 4.963 -14.519096394668605 0 0 0
75 1 3 0 11.0522 6.381 -14.519096394668605 0 0 0
76 1 3 0 12.2802 7.09 -14.519096394668605 0 0 0
78 1 3 0 13.5083 4.963 -14.519096394668605 0 0 0
79 1 3 0 13.5083 6.381 -14.519096394668605 0 0 0
1374 182 2 0.5564 12.553219578123278 3.7918218439765807 -8.015270449804735 -4 0 0
3732 968 2 0.5564 11.395686147799456 3.128650035576293 -9.690585792804601 -2 0 0
2427 533 2 0.5564 -1.7362454927372257 -0.4017401392085578 -4.688622801968939 5 0 0
2960 711 1 -1.1128 11.142040407562051 4.281458950278963 -11.412846849338772 -2 0 0
2961 711 2 0.5564 11.222933138038368 5.213412175710545 -11.20998169620254 -2 0 0
1728 300 2 0.5564 8.931753652388373 0.25412136144949077 -9.946106424696138 -1 3 0
1921 364 2 0.5564 8.31373472073478 4.872864772673998 -10.869265883296093 -2 5 0
3655 942 2 0.5564 12.55688980725488 7.23117362497747 -10.247066620956181 -3 0 0
3733 968 2 0.5564 10.25906010425636 2.954732849023092 -8.705835602873057 -2 0 0
3731 968 1 -1.1128 11.176669998922794 2.72424348352176 -8.851108351351519 -2 0 0
2638 603 2 0.5564 -0.6164057847562447 -0.036253937307561775 -11.441204990313937 1 -1 0
3021 731 2 0.5564 5.9270396943696175 4.84667471473023 -2.3102392852657663 -2 0 0
3019 730 2 0.5564 11.870962885707673 0.9415630775559538 -9.08059443904801 0 -2 0
1351 174 2 0.5564 8.57348145111639 7.094464302648489 -9.45527051598076 0 3 0
3158 777 1 -1.1128 3.8350175774470605 0.13167194093761536 -5.6876230188523795 -2 0 0
1494 222 2 0.5564 -1.4503852999837092 6.93106824776656 -6.662451452849436 0 3 0
2891 688 1 -1.1128 6.264681268001944 3.396252223208724 -6.885208604672726 0 -1 0
3532 901 2 0.5564 9.41020909702305 4.756259085079668 -3.3988689508401593 -2 5 0
1043 72 1 -1.1128 3.054982447212491 7.2693235064226265 -3.0673118116085005 0 1 0
1349 174 1 -1.1128 8.435078725180793 6.1494257920592075 -9.518358461247466 0 3 0
2892 688 2 0.5564 7.147356890581852 3.340940537367256 -7.251351102283311 0 -1 0
3266 813 1 -1.1128 -1.693574970123905 0.7038785862956278 -2.12415289771078 1 -1 0
2949 707 2 0.5564 -1.6615472645831373 5.254594696454155 -11.31608622959709 2 -1 0
1102 91 2 0.5564 1.9578983067697213 -0.27574832945261984 -9.34545940846387 -1 0 0
1350 174 2 0.5564 8.926017528284696 5.785277401911288 -8.78173921209244 0 3 0
1591 254 2 0.5564 8.144039541985842 2.1793745632603323 -8.874384187692531 3 5 0
1590 254 2 0.5564 8.68978010558469 2.006200633466932 -7.472927300347713 3 5 0
2893 688 2 0.5564 6.226506605506306 4.262979117274082 -6.480780715052397 0 -1 0
1589 254 1 -1.1128 8.561283361172261 2.660433395154973 -8.159735106858223 3 5 0
1373 182 1 -1.1128 13.155483238011978 4.436418506347647 -7.643775194697311 -4 0 0
3159 777 2 0.5564 3.7400014703635724 -0.31798042721282804 -4.84796714439493 -2 0 0
2597 590 1 -1.1128 -0.858043054004391 0.49074216296934026 -8.533033024517376 1 1 0
3288 820 2 0.5564 -0.4098160776870191 7.144180395858655 -3.445806027892607 5 -1 0
3685 952 2 0.5564 1.0607011409464082 0.12953555013571466 -1.2323064870311329 2 2 0
3153 775 2 0.5564 3.8696891769722814 6.3427492588327095 -7.980995864765987 -4 -1 0
2636 603 1 -1.1128 -1.4691641749190294 -0.2145209814509336 -11.044649521987955 1 -1 0
2340 504 2 0.5564 8.194938604530725 0.03324586628701248 -2.1090253249492075 4 -2 0
3267 813 2 0.5564 -1.826533785644975 1.5748029694117442 -2.498384807713013 1 -1 0
1280 151 1 -1.1128 -0.02289595722005366 -0.47159075054140903 -5.037395018050199 2 3 0
3289 820 2 0.5564 -1.6409509056371445 6.98919358157258 -4.313090123110524 5 -1 0
1760 311 1 -1.1128 -1.0194493827397244 7.031318333971847 -11.249062451952593 1 1 0
3154 775 2 0.5564 2.8039991358111007 5.598856259959175 -7.204578580895551 -4 -1 0
3295 822 2 0.5564 6.3880671909527384 6.526461281515333 -0.2434406790918016 -2 2 0
2523 565 2 0.5564 1.9768387275819208 2.1449866206068444 -6.385811643289198 -1 0 0
1119 97 2 0.5564 5.838404113355287 1.0733783069287726 -1.2867361539738935 -1 -1 0
2522 565 1 -1.1128 1.8406054758944261 2.08147330951163 -7.331140774047666 -1 0 0
1118 97 1 -1.1128 5.5425301649984755 1.7805926830927192 -0.7135534861366133 -1 -1 0
2062 411 2 0.5564 3.4904233221392307 2.5649390815166284 -1.807227235722596 1 -1 0
2061 411 2 0.5564 4.045730625513945 2.5635525009675595 -3.215605533988695 1 -1 0
2128 433 2 0.5564 4.869314842713048 1.3042486061552956 -4.853295789435682 4 3 0
3074 749 1 -1.1128 1.4694591119616418 1.886048623191499 -4.5434085212214335 -1 0 0
2060 411 1 -1.1128 3.2865517774823374 2.8385511926430707 -2.7015459315637926 1 -1 0
1527 233 2 0.5564 4.221007894686987 6.086909811817978 -3.428771633185917 1 0 0
1729 300 2 0.5564 10.266937957657651 -0.3722445714103344 -9.604273926415198 -1 3 0
1681 284 2 0.5564 -0.6971738794963993 4.109723829389334 -3.270859460367745 0 -1 0
1680 284 2 0.5564 -1.111788664090849 3.2441097587481402 -4.441629406362669 0 -1 0
1679 284 1 -1.1128 -0.8173092362672917 3.196728067318885 -3.532085736038006 0 -1 0
3453 875 2 0.5564 -0.585068851150884 5.557715437006651 -1.6614371688703453 -3 2 0
3075 749 2 0.5564 0.657355921136448 2.337673190200511 -4.313721571211781 -1 0 0
3076 749 2 0.5564 2.0488279813839623 2.03966356145512 -3.7971065092876097 -1 0 0
3452 875 1 -1.1128 0.09788145088981634 5.7217180402842205 -2.311758339720159 -3 2 0
3454 875 2 0.5564 0.9168205546120253 5.663542107632651 -1.8196323404440706 -3 2 0
2583 585 2 0.5564 1.9741099703127623 6.984442167273581 -4.721591487440463 1 -4 0
2582 585 1 -1.1128 1.612018842395456 6.45746344842907 -5.433923578482695 1 -4 0
1120 97 2 0.5564 5.829838751494301 2.581283018992749 -1.152395699353005 -1 -1 0
1528 233 2 0.5564 4.2902857922988415 4.581814796470572 -3.5763700480351166 1 0 0
3017 730 1 -1.1128 11.920184133015416 0.008526950656341705 -9.288567966168749 0 -2 0
1526 233 1 -1.1128 4.822006003556182 5.3746002622780455 -3.6470590980924915 1 0 0
1281 151 2 0.5564 0.6022908198207574 0.25091650273104693 -5.095354361547783 2 3 0
3160 777 2 0.5564 4.455968703899106 -0.40614726587827765 -6.178950371340915 -2 0 0
1201 124 2 0.5564 5.88270751882518 7.35801304981935 -8.268039317258621 2 2 0
2584 585 2 0.5564 0.6962218180259976 6.321953729621412 -5.190639874529598 1 -4 0
1189 120 2 0.5564 5.447064263451664 5.770714500568527 -5.229844765662207 0 -1 0
1128 100 2 0.5564 1.4146741685475026 -0.6259851659196158 -11.489248543986186 4 4 0
3531 901 2 0.5564 9.869516841030263 3.373076519184372 -2.9893100411672724 -2 5 0
3706 959 2 0.5564 12.41155076154869 6.311992940474082 -2.77326278032249 0 0 0
3238 803 2 0.5564 12.9368724264946 3.435054435676084 -11.5580766457009 -2 0 0
1727 300 1 -1.1128 9.398422942631049 -0.5816111804429063 -9.947908753562949 -1 3 0
1982 385 1 -1.1128 13.35298807214863 4.572605533837185 -4.850349643823556 4 -1 0
890 21 1 -1.1128 12.37445027447161 0.10479139773684915 -3.3578716686052648 1 1 0
2600 591 1 -1.1128 11.606962921105191 7.537544241401945 -5.5470136919256605 5 -2 0
1447 206 2 0.5564 8.24379932510429 0.9685836517252221 -4.3203667092994245 -2 -2 0
2166 446 2 0.5564 -0.5670795200151639 4.748997782155877 -6.722001801816805 2 0 0
3530 901 1 -1.1128 9.243396129783497 4.06073560546171 -2.7627456945859983 -2 5 0
2429 534 1 -1.1128 8.67286230733552 6.034974205342324 -4.936021209738082 2 0 0
2644 605 2 0.5564 12.352365780922984 3.4765708198026886 -3.8507477391905716 -1 1 0
2239 470 2 0.5564 1.243217450488197 7.494218734754565 -6.785428554793757 3 3 0
1072 81 2 0.5564 10.562371846613214 6.709676187084619 -6.960157431168079 2 1 0
2126 433 1 -1.1128 5.3801612875991145 1.955822646018404 -4.372962294827171 4 3 0
3166 779 2 0.5564 9.147744476692939 3.5231100687781596 -1.0255078141529632 -2 1 0
2198 457 1 -1.1128 13.512222041565137 1.29877756054383 -0.5003626366610597 -1 -1 0
3684 952 2 0.5564 -0.06396269256625976 0.9353664675118063 -0.6177623813688942 2 2 0
2127 433 2 0.5564 5.791984114104684 2.4875825905243163 -5.054038928767091 4 3 0
1100 91 1 -1.1128 1.772421401236263 -0.4222276794878295 -8.417892899241041 -1 0 0
1984 385 2 0.5564 13.29722252458842 4.572167638874892 -5.805925745953497 4 -1 0
1071 81 2 0.5564 11.391293189120764 6.141379007511175 -8.092334035736995 2 1 0
3092 755 1 -1.1128 10.128070991462057 3.949340094235703 -5.978293788118509 -2 -2 0
3705 959 2 0.5564 12.148623883607955 7.299331702816614 -1.6561557995769403 0 0 0
3704 959 1 -1.1128 12.79202921185948 6.662974460814605 -1.9681043356743924 0 0 0
3093 755 2 0.5564 10.38738979918007 3.0985572624904765 -6.332065717795857 -2 -2 0
2165 446 1 -1.1128 -1.3538114921610451 4.940602410424295 -6.211538695806925 2 0 0
2643 605 2 0.5564 12.429363905937537 2.7947141072497574 -2.5012882883084253 -1 1 0
2336 503 1 -1.1128 8.983232972649754 0.9767207564528105 -5.96698298235293 -2 0 0
1187 120 1 -1.1128 6.17488732388205 5.992441511286721 -5.810657880976706 0 -1 0
1070 81 1 -1.1128 10.49713285022191 6.176644189505015 -7.752530515278219 2 1 0
3022 731 2 0.5564 7.303655078652892 4.21814849259032 -2.2680180901102736 -2 0 0
1188 120 2 0.5564 6.015465738126217 6.903219889801803 -6.058245413202494 0 -1 0
1445 206 1 -1.1128 7.709743932595085 0.8917683218723297 -3.529723615794896 -2 -2 0
2642 605 1 -1.1128 11.95062910879882 2.781066119004728 -3.3300580381820315 -1 1 0
3094 755 2 0.5564 10.460159416404435 4.584415585651189 -6.612825216762167 -2 -2 0
1446 206 2 0.5564 6.834960506832297 1.1677497844977158 -3.803257738905887 -2 -2 0
2431 534 2 0.5564 9.22486135144141 5.31903017411569 -5.250596298179164 2 0 0
2430 534 2 0.5564 7.848965846688152 5.929631408575868 -5.411768595097036 2 0 0
2339 504 1 -1.1128 8.45231548733509 -0.5771530827024536 -1.4180815300530738 4 -2 0
2775 649 2 0.5564 12.516283299458262 4.937780971067227 -0.7682095492663917 -2 -1 0
2337 503 2 0.5564 9.864526391709196 0.6110697803394721 -6.043491425365336 -2 0 0
2774 649 1 -1.1128 12.360777402766963 4.3765221342359215 -0.008578025175586559 -2 -1 0
3287 820 1 -1.1128 -0.7758291704967032 7.398329204504653 -4.292963038712684 5 -1 0
1255 142 2 0.5564 8.438026453826266 7.446179515900626 -3.760348794713264 -6 -2 0
3011 728 1 -1.1128 11.519702634555884 -0.11803135039431464 -6.119237003453088 2 0 0
3683 952 1 -1.1128 0.8560988215938341 0.7024827503375576 -0.4933174223772642 2 2 0
3018 730 2 0.5564 12.403450651648223 -0.028192503303064748 -10.113999637235136 0 -2 0
2599 590 2 0.5564 0.08920978487679038 0.37105387135026313 -8.465065483328967 1 1 0
2512 561 2 0.5564 -1.5422426133267269 7.369274990329177 -1.4995560671154071 -3 1 0
2598 590 2 0.5564 -1.0664596955919685 0.2482023337779321 -9.435236771242842 1 1 0
1044 72 2 0.5564 2.620146247091414 7.377365110086743 -2.221450592554187 0 1 0
2200 457 2 0.5564 13.841060928612604 2.145234975646069 -0.19768868641340756 -1 -1 0
3013 728 2 0.5564 11.875607234144107 0.14775252233807662 -6.967130189156962 2 0 0
1384 185 2 0.5564 8.107342416019325 7.743402277561548 -0.3225616498517322 3 3 0
3079 750 2 0.5564 4.289771445175211 -0.562191450438208 -2.2969730469192884 -1 2 0
3164 779 1 -1.1128 9.587690941706748 3.4146213096561033 -0.18235296707313814 -2 1 0
3294 822 2 0.5564 6.1791657979440915 5.042821689181353 -0.02648573431542852 -2 2 0
2530 567 2 0.5564 13.473170068560393 7.671568265673366 -6.203317703812801 0 -2 0
2341 504 2 0.5564 9.392732465277177 -0.7016701143208401 -1.5459228989073062 4 -2 0
3077 750 1 -1.1128 3.704106947926748 -0.4380359590157112 -3.0438435165953566 -1 2 0
2878 683 2 0.5564 1.0912161355224372 7.786513761326331 -0.534527913067036 1 2 0
2511 561 2 0.5564 -1.494535468958611 7.6787630237676865 -0.01839542964697915 -3 1 0
3658 943 2 0.5564 -1.5970840160543567 3.1361174274683865 9.634578287841899 0 1 0
3701 958 1 -1.1128 3.067456776700311 3.0736068399385155 4.572272445002435 4 2 0
3702 958 2 0.5564 3.416924306486841 3.738259060366172 3.978685962771566 4 2 0
3703 958 2 0.5564 3.785111088260427 2.450054528503632 4.6835719194049945 4 2 0
1793 322 1 -1.1128 9.323708293678896 -0.4155136604471875 3.7766994679125356 3 -2 0
1066 79 2 0.5564 3.187024346789431 0.2155845672042342 13.235094883445562 -3 0 0
3005 726 1 -1.1128 -1.1422290790037013 3.8470309792291335 4.9500256989704 -2 2 0
3007 726 2 0.5564 -1.159139452429889 3.1880811807622798 4.255956948541747 -2 2 0
2667 613 2 0.5564 1.7681986170300916 3.53576495791489 6.626121512411471 -1 2 0
3006 726 2 0.5564 -0.3084114704606371 3.7029374799231185 5.397482490887131 -2 2 0
2484 552 2 0.5564 11.12651932647314 -0.5776415969417282 4.966262526171744 5 4 0
1956 376 2 0.5564 4.873524182586801 2.8748027645218217 2.152744534635517 3 -4 0
2741 638 1 -1.1128 2.6469573877623 2.7817934767195838 0.12569387100363377 3 1 0
2666 613 1 -1.1128 0.8902307446566455 3.1680007503244596 6.525332676385421 -1 2 0
2668 613 2 0.5564 1.0051951210355923 2.434491356157449 5.921194034853789 -1 2 0
1434 202 2 0.5564 3.0611434842106156 4.326114001402878 1.8987722300857193 0 3 0
1435 202 2 0.5564 4.348987181725158 5.115295628571068 1.7960720348869872 0 3 0
1433 202 1 -1.1128 3.8164452544142033 4.612464035352891 2.4123448990414254 0 3 0
898 23 2 0.5564 1.7933346415581504 1.7757049990350091 4.326829628692379 3 -2 0
908 27 1 -1.1128 -0.9266351325329872 2.367742939189094 2.650631173628266 0 0 0
975 49 2 0.5564 11.87234233047295 6.2832509627798725 10.35328534179193 -2 -2 0
1957 376 2 0.5564 5.206204854937903 1.9209165836706308 1.0252149090805973 3 -4 0
3260 811 1 -1.1128 0.16375448133951265 -0.5977848613878848 2.1546122848220097 2 2 0
3009 727 2 0.5564 5.649384751112381 1.0176817925313772 6.89813923399894 1 2 0
896 23 1 -1.1128 0.9494681400073647 1.3419221886470674 4.453153771122471 3 -2 0
2249 474 1 -1.1128 0.6548523384044324 5.630941909618221 3.270235060166735 -1 -3 0
2066 413 1 -1.1128 1.2864931184573611 -0.21448450680338074 7.002884066839657 -2 2 0
2067 413 2 0.5564 1.3680303219125334 0.30034191107105096 7.805718888269943 -2 2 0
910 27 2 0.5564 -0.25998108469139586 1.8148062851617683 3.058145129011187 0 0 0
1360 177 2 0.5564 5.291336438968936 0.4691646279802528 3.3180371426591213 0 0 0
897 23 2 0.5564 1.1521431860480047 0.5734338605893812 4.986615264516648 3 -2 0
2834 669 1 -1.1128 -1.3800314602207522 6.745696273460926 1.8436024648263838 6 -3 0
1238 137 1 -1.1128 5.906047222780197 2.8365482885515467 7.048740320243513 -2 -2 0
3217 796 2 0.5564 3.9571310196795695 5.032352354386529 7.222844044549463 -6 1 0
3215 796 1 -1.1128 3.4619713603627407 4.2435189705867575 7.443735194502351 -6 1 0
909 27 2 0.5564 -1.4082355929270134 1.7762986653700747 2.0722816618529776 0 0 0
3216 796 2 0.5564 4.120635468257038 3.5501393204273684 7.484008476637536 -6 1 0
3261 811 2 0.5564 0.3158552890804571 -0.061628639721966284 1.376386764010644 2 2 0
2743 638 2 0.5564 2.111533460090986 1.9886945316267628 0.10227157190758628 3 1 0
1240 137 2 0.5564 6.537489261504038 3.258438695790378 6.466053181375797 -2 -2 0
1730 301 1 -1.1128 14.07310747184333 6.008743492085201 13.33788774831488 3 -3 0
3279 817 2 0.5564 8.75590151824793 6.103750208941197 13.010616849557904 2 4 0
1358 177 1 -1.1128 5.162409072334097 -0.23286355607291587 3.955821561969319 0 0 0
2958 710 2 0.5564 8.447232596273038 0.387687353918997 0.06514967618389468 -1 -1 0
2483 552 1 -1.1128 11.931654332481703 -0.447466602462332 5.4673072685282875 5 4 0
3008 727 1 -1.1128 5.689840948627833 0.12715560716011798 7.246798414697926 1 2 0
2967 713 2 0.5564 2.0778356856685876 6.718758984490899 8.324108829154332 -5 0 0
3620 931 1 -1.1128 11.445714091673368 0.6511279637219549 1.2732689714888938 3 -1 0
3350 841 1 -1.1128 -0.9170739027850757 7.485982723228992 9.525394670139262 0 4 0
1967 380 1 -1.1128 13.31759144433456 6.320069511800189 1.9810536572051358 3 0 0
2757 643 2 0.5564 -1.3061732551036467 3.1900760191590156 11.705204935929125 -2 1 0
2968 713 2 0.5564 3.0565674996033882 5.651409073551803 8.76540790574204 -5 0 0
3010 727 2 0.5564 6.5733705265308044 -0.1737648480778697 7.03453263721381 1 2 0
1975 382 2 0.5564 7.849276259777795 7.465621444450873 2.969154224836568 0 2 0
1955 376 1 -1.1128 5.411176056918789 2.1118329674877807 1.9405159658129771 3 -4 0
484 2 4 0 7.36814 7.09 16.74620659931785 0 0 0
2693 622 1 -1.1128 8.402928230228499 3.520491586327853 2.97245366430865 2 1 0
1677 283 2 0.5564 8.549689048528737 5.065609883503848 2.250511804028649 -3 1 0
3621 931 2 0.5564 11.95601189298101 0.8439181678284736 0.4867169260326763 3 -1 0
2632 601 2 0.5564 11.877290350303657 0.9320941760773042 7.202569950623323 1 1 0
3622 931 2 0.5564 10.534508791508944 0.7583878639104011 1.0004439384615713 3 -1 0
440 2 4 0 12.2802 2.836 16.74620659931785 0 0 0
1969 380 2 0.5564 12.836317741787235 5.808745109841069 1.3305497213316404 3 0 0
3140 771 1 -1.1128 10.09599255081243 1.824259633682761 6.465790521988486 4 2 0
3142 771 2 0.5564 10.043017863350627 1.820101845375784 5.510066460130179 4 2 0
3141 771 2 0.5564 10.203110238352853 2.747120193390461 6.696195861766616 4 2 0
3165 779 2 0.5564 9.202170428172275 2.6211575061194945 0.18915923387534256 -2 1 0
1676 283 1 -1.1128 8.259437633672702 5.929243225695899 1.957042635262044 -3 1 0
494 2 4 0 13.5083 4.963 16.74620659931785 0 0 0
1555 242 2 0.5564 7.679011502804782 4.1601631729409245 4.57186852441855 -1 -4 0
3657 943 2 0.5564 -0.3662036152369699 2.2555605021606944 9.59651395300339 0 1 0
1554 242 2 0.5564 8.240794997870452 4.515966717891889 5.931906633309309 -1 -4 0
1553 242 1 -1.1128 7.4329585166580525 4.532384086298755 5.418713094499029 -1 -4 0
1274 149 1 -1.1128 6.390740290117858 6.963627145059657 11.027849120004445 1 3 0
1678 283 2 0.5564 7.392387866933257 5.776215401332442 1.581490419580047 -3 1 0
1183 118 2 0.5564 9.467992807688633 7.252527197038055 1.3438688629239988 -1 1 0
2631 601 2 0.5564 13.18045271805468 0.19902358252790955 7.439787832824675 1 1 0
2106 426 2 0.5564 11.481160343007652 1.815315809761944 3.3063225179057314 -4 1 0
2959 710 2 0.5564 8.370239844135718 0.23413156112748273 1.5692733727745272 -1 -1 0
3293 822 1 -1.1128 5.970881948796468 5.899162782444779 0.34705784475517754 -2 2 0
2694 622 2 0.5564 7.885948450050257 3.0684788864943213 2.3056332299761406 2 1 0
2105 426 1 -1.1128 10.645285377944736 1.873321414166403 3.7691197454400167 -4 1 0
2630 601 1 -1.1128 12.605722717369463 0.8635114206308712 7.819753840299489 1 1 0
2107 426 2 0.5564 10.131301545714381 1.1409701910436543 3.4289446945904225 -4 1 0
2914 695 2 0.5564 9.253368322224055 0.3677097990538216 7.302877942501896 -4 2 0
2912 695 1 -1.1128 8.726196716951836 -0.4207862383907983 7.43170482276915 -4 2 0
1968 380 2 0.5564 13.898341595455573 5.686546382381319 2.4024976956301107 3 0 0
2836 669 2 0.5564 -0.7925437773537296 6.285544946180658 2.4430676843105097 6 -3 0
2447 540 1 -1.1128 11.761935999614689 6.2003649800668 6.041009111841835 2 5 0
2448 540 2 0.5564 12.377667501655376 5.473493015382375 6.134635013447486 2 5 0
2449 540 2 0.5564 11.99320928467072 6.604590154259613 5.204737622146137 2 5 0
1198 123 2 0.5564 10.159567374189978 5.138266088747122 6.998474310297706 1 4 0
1197 123 2 0.5564 9.318009215320947 4.4090276880218235 8.024089756673913 1 4 0
1196 123 1 -1.1128 9.658896649182722 4.333584621654334 7.1328327893063435 1 4 0
2321 498 1 -1.1128 5.634605889297666 6.100922972690304 8.610458216637364 3 7 0
2695 622 2 0.5564 9.251719429012022 3.078228087857452 2.9586814101287797 2 1 0
2986 719 2 0.5564 6.906563808545646 6.207982436923311 5.4976730130724665 0 0 0
434 2 4 0 8.59617 0.709 16.74620659931785 0 0 0
437 2 4 0 12.2802 0 16.74620659931785 0 0 0
429 2 4 0 7.36814 0 16.74620659931785 0 0 0
2033 402 1 -1.1128 1.1064554233343267 1.8482825174733228 8.826942187849259 -2 0 0
492 2 4 0 12.2802 7.09 16.74620659931785 0 0 0
2035 402 2 0.5564 1.021035137281738 2.4475702024988637 8.085463490472366 -2 0 0
3656 943 1 -1.1128 -1.1108939312749893 2.492088841841501 10.149436265421446 0 1 0
2323 498 2 0.5564 5.000316751216144 6.795617952994143 8.433513341232667 3 7 0
3183 785 2 0.5564 13.069156868809607 7.728167963530044 13.49864526022009 0 -2 0
481 2 4 0 7.36814 4.254 16.74620659931785 0 0 0
486 2 4 0 8.59617 4.963 16.74620659931785 0 0 0
1795 322 2 0.5564 8.703864776900966 -0.597497499421241 4.483034196265174 3 -2 0
2756 643 1 -1.1128 -1.458064755046284 3.415976908215493 12.622885352371917 -2 1 0
1064 79 1 -1.1128 2.560564265743343 0.8950772876517421 12.985957403277862 -3 0 0
2931 701 2 0.5564 2.621141559222307 1.6027982346796905 11.121209672024715 3 -1 0
2034 402 2 0.5564 1.8550899397339948 2.1827377990483217 9.320822922978863 -2 0 0
2932 701 2 0.5564 3.8112775831704604 1.6217538277350523 10.185733304065154 3 -1 0
842 5 1 -1.1128 0.5060323340000709 4.984276533630446 13.71868459203267 3 -5 0
844 5 2 0.5564 0.8950295431768653 5.452361351348959 12.97989489091674 3 -5 0
1437 203 2 0.5564 2.6893923815016576 6.006961139276019 11.742509347555862 -2 2 0
2477 550 1 -1.1128 5.163938293224557 0.5444250374114955 9.943983838459571 -1 3 0
2478 550 2 0.5564 5.415401996880558 0.34028182375963817 9.043246621749756 -1 3 0
1436 203 1 -1.1128 1.7852599441022567 6.300936538102478 11.63135592325936 -2 2 0
1438 203 2 0.5564 1.7354087949645287 6.583781705904587 10.718258981497264 -2 2 0
2465 546 1 -1.1128 5.8633807372595435 2.3504934524614303 12.055734980274048 -2 0 0
2479 550 2 0.5564 4.834723221611637 -0.283148402194823 10.294665231122984 -1 3 0
2654 609 1 -1.1128 13.968632571860303 1.4082505839882848 5.091446649918756 5 0 0
1276 149 2 0.5564 6.824298380546638 6.278778160838642 11.537011882944878 1 3 0
843 5 2 0.5564 -0.13360044915590424 5.597218592629469 14.08118153458274 3 -5 0
2467 546 2 0.5564 5.018362311097536 2.7093134714148426 12.326704572413417 -2 0 0
2788 653 2 0.5564 4.571631866875277 5.012079774860292 11.426071994219965 2 3 0
2787 653 2 0.5564 3.7409949049722355 3.955672213955704 10.728973616494287 2 3 0
2786 653 1 -1.1128 4.23338510559726 4.760325730450746 10.566744888606774 2 3 0
1961 378 1 -1.1128 2.837714449810891 3.675864994640057 13.44323111927942 -4 -2 0
1962 378 2 0.5564 2.037945021835255 4.050920365115641 13.811927622757864 -4 -2 0
1963 378 2 0.5564 2.610400644122488 2.7657267854722893 13.252937852275783 -4 -2 0
2466 546 2 0.5564 5.645113286573304 1.5298034347883591 11.614079242544982 -2 0 0
1239 137 2 0.5564 6.332250996283761 2.8379073380403836 7.905820601357421 -2 -2 0
433 2 4 0 9.82419 0 16.74620659931785 0 0 0
489 2 4 0 12.2802 4.254 16.74620659931785 0 0 0
2930 701 1 -1.1128 3.1045400272761796 2.1723695384610653 10.522754366157418 3 -1 0
3788 987 1 -1.1128 1.5660085385599023 5.547296614313025 0.5154352519155538 3 1 0
1065 79 2 0.5564 1.7102983396749973 0.5483441343359495 13.256247483464923 -3 0 0
2656 609 2 0.5564 13.105218116187265 0.9961750348302194 5.12220520164882 5 0 0
2758 643 2 0.5564 -0.7585705400403348 4.0333026524420195 12.837020195145525 -2 1 0
2322 498 2 0.5564 5.146133955245421 5.453872105064107 9.119336226283846 3 7 0
2957 710 1 -1.1128 8.671813393772878 0.8301682918967104 0.8836890858061813 -1 -1 0
2250 474 2 0.5564 0.3179032354709544 4.884390777880427 3.7655724043435104 -1 -3 0
3467 880 1 -1.1128 -1.2426551057889237 7.0488237525082065 13.568742973312572 3 1 0
485 2 4 0 9.82419 4.254 16.74620659931785 0 0 0
974 49 1 -1.1128 11.69787679146815 7.2047621473808965 10.544625522382088 -2 -2 0
488 2 4 0 9.82419 7.09 16.74620659931785 0 0 0
1550 241 1 -1.1128 13.881656800170349 4.234577231989501 6.170978956745471 6 2 0
490 2 4 0 11.0522 4.963 16.74620659931785 0 0 0
1881 351 2 0.5564 13.133478954047812 3.882413569661209 8.752645374392818 -2 -1 0
3789 987 2 0.5564 2.2734474757847716 6.185468947422918 0.6076274987449636 3 1 0
2281 484 2 0.5564 5.286400869374699 7.327666509780928 13.615069212154078 0 -1 0
3367 846 2 0.5564 12.473345881380505 7.4207266000617 3.2077845458659886 2 -3 0
438 2 4 0 11.0522 0.709 16.74620659931785 0 0 0
495 2 4 0 13.5083 6.381 16.74620659931785 0 0 0
2251 474 2 0.5564 1.05524422358726 6.196228526331183 3.930817709891849 -1 -3 0
1275 149 2 0.5564 6.436836868942001 6.655372071779668 10.122812545313474 1 3 0