LAMMPS data file via write_data, version 2 Aug 2023, timestep = 7000000, units = real

3832 atoms
4 atom types
2000 bonds
1 bond types
1000 angles
1 angle types
0 impropers
1 improper types

-1.8420299999999998 30.08661 xlo xhi
-0.709 33.323 ylo yhi
-150 150 zlo zhi

Masses

1 15.9994
2 1.00794
3 12.0107
4 12.0107

Pair Coeffs # lj/cut/tip4p/long

1 0.1852 3.1589
2 0 0
3 0.0859 3.3997
4 0.0859 3.3997

Bond Coeffs # harmonic

1 5000 0.9572

Angle Coeffs # harmonic

1 500 104.52

Atoms # full

1 1 3 0 0 0 -14.519096394668605 0 0 0
2 1 3 0 -1.22802 0.709 -14.519096394668605 0 0 0
3 1 3 0 -1.22802 2.127 -14.519096394668605 0 0 0
4 1 3 0 0 2.836 -14.519096394668605 0 0 0
5 1 3 0 2.45605 0 -14.519096394668605 0 0 0
6 1 3 0 1.22802 0.709 -14.519096394668605 0 0 0
7 1 3 0 1.22802 2.127 -14.519096394668605 0 0 0
8 1 3 0 2.45605 2.836 -14.519096394668605 0 0 0
9 1 3 0 4.9121 0 -14.519096394668605 0 0 0
10 1 3 0 3.68407 0.709 -14.519096394668605 0 0 0
11 1 3 0 3.68407 2.127 -14.519096394668605 0 0 0
12 1 3 0 4.9121 2.836 -14.519096394668605 0 0 0
14 1 3 0 6.14012 0.709 -14.519096394668605 0 0 0
15 1 3 0 6.14012 2.127 -14.519096394668605 0 0 0
53 1 3 0 0 4.254 -14.519096394668605 0 0 0
54 1 3 0 -1.22802 4.963 -14.519096394668605 0 0 0
55 1 3 0 -1.22802 6.381 -14.519096394668605 0 0 0
56 1 3 0 0 7.09 -14.519096394668605 0 0 0
57 1 3 0 2.45605 4.254 -14.519096394668605 0 0 0
58 1 3 0 1.22802 4.963 -14.519096394668605 0 0 0
59 1 3 0 1.22802 6.381 -14.519096394668605 0 0 0
60 1 3 0 2.45605 7.09 -14.519096394668605 0 0 0
61 1 3 0 4.9121 4.254 -14.519096394668605 0 0 0
62 1 3 0 3.68407 4.963 -14.519096394668605 0 0 0
63 1 3 0 3.68407 6.381 -14.519096394668605 0 0 0
64 1 3 0 4.9121 7.09 -14.519096394668605 0 0 0
66 1 3 0 6.14012 4.963 -14.519096394668605 0 0 0
67 1 3 0 6.14012 6.381 -14.519096394668605 0 0 0
1999 390 2 0.5564 0.8896169296492633 2.37797718970946 -7.794877653768778 2 3 0
1997 390 1 -1.1128 1.4020270915289772 2.839300126842603 -7.130911179457903 2 3 0
878 17 1 -1.1128 -0.15900475791609678 1.604655577096943 -9.261899038688309 2 3 0
1026 66 2 0.5564 0.8153566724750705 5.550833213599859 -10.325279772267454 -1 2 0
1025 66 1 -1.1128 0.9116542343057573 4.690902611945019 -9.916037426655567 -1 2 0
1027 66 2 0.5564 0.8235915754422314 4.860290390430647 -8.978068149426456 -1 2 0
2369 514 1 -1.1128 2.361849525284452 2.7788472519824405 -11.609717026267319 2 2 0
2371 514 2 0.5564 2.7591947554855167 3.385736094951273 -12.234244874193607 2 2 0
2370 514 2 0.5564 1.6901806140062743 3.2967233333070545 -11.165983719579529 2 2 0
1860 344 2 0.5564 1.7524959724933908 1.1286902499326459 -11.03130344692821 0 -2 0
1998 390 2 0.5564 2.2854024459682933 2.4810599029395313 -7.217770071676397 2 3 0
2636 603 1 -1.1128 5.152400685301064 6.201016043732471 -8.29397173432905 1 -1 0
2951 708 1 -1.1128 13.450766014307844 -0.5372471728073855 -5.5657268713643955 -3 -2 0
3403 858 2 0.5564 -0.5071032839967409 5.036725323634377 -6.459052416546461 5 2 0
3062 745 1 -1.1128 0.05139187261582344 6.2830542659607636 -7.4956821539929335 1 -3 0
3064 745 2 0.5564 0.5842996077203206 7.01390707373125 -7.182471682250446 1 -3 0
2637 603 2 0.5564 5.119071355186855 5.245730724842315 -8.243396013200448 1 -1 0
1338 170 2 0.5564 13.49821248748661 0.586202392146515 -10.23288829562915 2 1 0
3308 827 1 -1.1128 5.181943601039902 2.56499656814338 -10.69722255979779 8 -1 0
2638 603 2 0.5564 6.027168014800872 6.393076480723273 -8.63180012784183 1 -1 0
1375 182 2 0.5564 -1.331164451373235 4.032558734111945 -11.31106306099639 -3 0 0
1859 344 1 -1.1128 1.5973559584709414 0.1945178736999971 -10.891711164258922 0 -2 0
3310 827 2 0.5564 5.114943708787961 3.139293237937731 -9.934379678489472 8 -1 0
3309 827 2 0.5564 4.289030708333423 2.2513646094057376 -10.840663201085192 8 -1 0
3208 793 2 0.5564 0.43494224043750096 7.587142877112173 -11.517075695668968 1 1 0
1861 344 2 0.5564 2.442086857996969 -0.21845135458274542 -11.07092982236094 0 -2 0
3227 800 1 -1.1128 3.541849351257402 5.25787195582417 -11.146795261389146 -1 0 0
1373 182 1 -1.1128 -1.4578398923525187 3.0985292893672285 -11.477720447089926 -3 0 0
2711 628 1 -1.1128 -0.8627678939838147 7.065564543833702 -1.8514784916053075 2 1 0
3063 745 2 0.5564 -0.7858480639307738 6.681265360656145 -7.7337810106255285 1 -3 0
3229 800 2 0.5564 2.891845880612248 4.945420551520595 -10.517428387410982 -1 0 0
879 17 2 0.5564 0.3126918382682367 0.8992443535317652 -9.704764853827827 2 3 0
1312 161 2 0.5564 8.827080638634659 7.737281240323428 -8.679978252381611 0 0 0
2498 557 1 -1.1128 0.41831008122458824 6.25277722643849 -4.225168040692548 4 3 0
954 42 2 0.5564 11.196411182758204 0.8853072739459473 -0.4770920584985413 2 1 0
884 19 1 -1.1128 2.017395404937111 -0.002363292113264261 -5.195430349308764 -4 3 0
975 49 2 0.5564 6.843290389320089 1.6295610060195518 -10.610733958347518 -2 -2 0
976 49 2 0.5564 7.402516668070753 0.2296768142144838 -10.471138579633006 -2 -2 0
1298 157 1 -1.1128 5.308688168374611 3.545878522384995 -8.028105936193386 -4 4 0
974 49 1 -1.1128 7.667256500029478 1.146007765144313 -10.551658147690437 -2 -2 0
2560 577 2 0.5564 11.46403031344309 5.945186919345322 -5.1692994532741565 4 1 0
3007 726 2 0.5564 -1.6393838898000404 3.7492915410315657 -2.0963531655255294 -2 2 0
1060 77 2 0.5564 5.076016370735667 7.4301305696849065 -6.589430178662962 -7 -4 0
3689 954 1 -1.1128 11.7353443086184 7.439462731962078 -8.811343647192698 1 2 0
2047 406 2 0.5564 9.681153297776747 -0.5943954196364919 -8.779998572630348 0 0 0
2500 557 2 0.5564 0.09494681615442613 6.485780623842462 -3.354892471783234 4 3 0
2416 529 2 0.5564 12.717609766949845 4.99478465732214 -7.902740250200266 -1 0 0
3380 851 1 -1.1128 6.902681023726579 7.424027232720606 -11.011093703304459 0 2 0
2176 449 2 0.5564 7.418840696499043 5.78287268218506 -11.053665380423082 -3 -1 0
13 1 3 0 7.36814 0 -14.519096394668605 0 0 0
16 1 3 0 7.36814 2.836 -14.519096394668605 0 0 0
17 1 3 0 9.82419 0 -14.519096394668605 0 0 0
18 1 3 0 8.59617 0.709 -14.519096394668605 0 0 0
19 1 3 0 8.59617 2.127 -14.519096394668605 0 0 0
20 1 3 0 9.82419 2.836 -14.519096394668605 0 0 0
21 1 3 0 12.2802 0 -14.519096394668605 0 0 0
22 1 3 0 11.0522 0.709 -14.519096394668605 0 0 0
23 1 3 0 11.0522 2.127 -14.519096394668605 0 0 0
24 1 3 0 12.2802 2.836 -14.519096394668605 0 0 0
26 1 3 0 13.5083 0.709 -14.519096394668605 0 0 0
27 1 3 0 13.5083 2.127 -14.519096394668605 0 0 0
65 1 3 0 7.36814 4.254 -14.519096394668605 0 0 0
68 1 3 0 7.36814 7.09 -14.519096394668605 0 0 0
69 1 3 0 9.82419 4.254 -14.519096394668605 0 0 0
70 1 3 0 8.59617 4.963 -14.519096394668605 0 0 0
71 1 3 0 8.59617 6.381 -14.519096394668605 0 0 0
72 1 3 0 9.82419 7.09 -14.519096394668605 0 0 0
73 1 3 0 12.2802 4.254 -14.519096394668605 0 0 0
74 1 3 0 11.0522 4.963 -14.519096394668605 0 0 0
75 1 3 0 11.0522 6.381 -14.519096394668605 0 0 0
76 1 3 0 12.2802 7.09 -14.519096394668605 0 0 0
78 1 3 0 13.5083 4.963 -14.519096394668605 0 0 0
79 1 3 0 13.5083 6.381 -14.519096394668605 0 0 0
2175 449 2 0.5564 7.041993307289275 4.327003000402322 -10.879513584501787 -3 -1 0
2174 449 1 -1.1128 7.792375274115939 4.90187630252897 -11.030111609203399 -3 -1 0
3005 726 1 -1.1128 -1.3746363775487795 3.843376136754628 -1.1813180388222855 -2 2 0
2304 492 2 0.5564 9.88462613634009 5.92787423176332 -7.054947613740247 -1 -3 0
1269 147 2 0.5564 9.292617635050718 6.781781878674765 -1.8468345072471115 0 -2 0
2414 529 1 -1.1128 13.202904525859879 4.210616902173843 -7.646220294196581 -1 0 0
2415 529 2 0.5564 13.590156035617628 4.434189513976339 -6.799884189432751 -1 0 0
3338 837 1 -1.1128 11.794386751042484 1.3207420267687031 -10.12698842567833 3 4 0
3339 837 2 0.5564 11.588527540432482 1.5898500274536167 -9.2317593133004 3 4 0
3340 837 2 0.5564 11.337895045965052 1.9553792136803632 -10.679332491681205 3 4 0
2397 523 2 0.5564 11.444831551081212 2.478170737094336 -7.019568354180051 0 1 0
3165 779 2 0.5564 6.888137135670747 0.21135155675457468 -7.022650842684805 -2 2 0
945 39 2 0.5564 9.131392131573264 3.8511515554189866 -11.291437451571007 1 -2 0
1475 216 1 -1.1128 6.704861219189689 3.6498378978805217 -0.6064873467248336 3 -1 0
946 39 2 0.5564 9.150731444890008 2.33758620912902 -11.26610967334818 1 -2 0
944 39 1 -1.1128 9.717354940944338 3.103492150291962 -11.173600182072176 1 -2 0
1349 174 1 -1.1128 12.134882033819405 6.909137458547735 -3.9213693895677486 0 2 0
2303 492 1 -1.1128 9.139175354144523 6.055807977447044 -7.641607437679668 -1 -3 0
2956 709 2 0.5564 -0.8407944631729424 0.25703157470774163 -6.632046582564842 -1 4 0
835 2 2 0.5564 8.933017103942122 0.30026577715909086 -5.942426907447832 -3 2 0
885 19 2 0.5564 2.533381826645788 0.25027375556822246 -4.429815899280504 -4 3 0
1492 221 2 0.5564 13.040994813219267 7.280122451191725 -10.206428861012279 -5 -1 0
1299 157 2 0.5564 4.9056145154351025 3.0036174749397557 -7.350081845802779 -4 4 0
1573 248 2 0.5564 8.352256932603515 7.113865810611083 -3.9481974511620193 -2 4 0
880 17 2 0.5564 -0.7672664462685281 1.9377740307602123 -9.921658305204215 2 3 0
1177 116 2 0.5564 5.942948833454201 0.8927520812535302 -0.9386290926317521 -3 -2 0
3667 946 2 0.5564 4.716217403931922 2.8195246484132586 -4.421926821981349 2 1 0
1374 182 2 0.5564 -1.481126068524485 3.0259964075861454 -12.431884582404969 -3 0 0
3164 779 1 -1.1128 6.1368430364349384 -0.362866803088941 -6.874112607854034 -2 2 0
2450 541 1 -1.1128 4.291772050446433 4.3893809157069 -3.8153569798571527 2 2 0
1175 116 1 -1.1128 5.220259142633227 1.4433686945885669 -0.6373427796069996 -3 -2 0
3162 778 2 0.5564 2.553190166441518 2.8909769286250695 -1.6355708735924752 1 -2 0
3495 889 2 0.5564 5.472675209175999 4.864183731388499 -1.1404315171829398 2 4 0
1044 72 2 0.5564 4.147482192980055 1.447696895748894 -6.239942870858025 0 1 0
2451 541 2 0.5564 3.666377641750487 5.008955436383265 -4.191178735594103 2 2 0
3163 778 2 0.5564 3.710593040741483 1.9522194780283602 -1.9021210506121426 1 -2 0
1684 285 2 0.5564 13.818072167564283 6.352506067905778 -0.41297970158260633 -2 -4 0
1043 72 1 -1.1128 3.6853337217804656 1.0771231859098511 -6.991825256197983 0 1 0
1045 72 2 0.5564 4.249348946936904 0.36476214573421173 -7.292925146655196 0 1 0
3401 858 1 -1.1128 -0.7293101697681583 4.2337262002512785 -5.987830877181596 5 2 0
2677 616 2 0.5564 0.35252595149467547 3.524769705725774 -0.7414064793699755 -2 3 0
3402 858 2 0.5564 -0.018801643155736583 3.627718206878815 -6.1979855802297505 5 2 0
3496 889 2 0.5564 4.444586459516124 5.353369777606501 -2.1382439157817212 2 4 0
1249 140 2 0.5564 4.867576918835974 0.04758573457794157 -2.122318798856697 2 1 0
2675 616 1 -1.1128 1.113804324913761 3.1554674706354877 -0.2938526010684814 -2 3 0
1350 174 2 0.5564 12.885086387575248 7.451916500116823 -4.163892234655275 0 2 0
3494 889 1 -1.1128 4.854108553067748 5.5765029683318605 -1.3023391195960416 2 4 0
1490 221 1 -1.1128 13.636043105853616 7.450309834311966 -10.936627005320489 -5 -1 0
2452 541 2 0.5564 3.755834641455065 3.7986266099121364 -3.2861931287310537 2 2 0
3161 778 1 -1.1128 3.2182853579950192 2.675952621970595 -2.2895176438823226 1 -2 0
1410 194 2 0.5564 7.911168705024539 1.4676556147829076 -4.51137847953057 1 0 0
2805 659 2 0.5564 2.1452186688423938 6.801496394694846 -4.212276447604566 0 0 0
3666 946 2 0.5564 5.2150822057425605 1.4006655618442794 -4.249090936005319 2 1 0
996 56 2 0.5564 6.170650619311635 4.740183898097415 -3.6899180965808505 5 -1 0
2804 659 1 -1.1128 3.0507987869193203 7.034477633724379 -4.007627271137803 0 0 0
2713 628 2 0.5564 -0.39578841136459797 7.365245402162687 -1.0715074301488694 2 1 0
2806 659 2 0.5564 3.422253860649361 7.312167672686977 -4.844972614192417 0 0 0
2886 686 2 0.5564 -1.5447196734209063 -0.5545364186468147 -11.055528312685729 -2 5 0
3665 946 1 -1.1128 5.066145838045066 2.0752463872066116 -4.911656209054976 2 1 0
1477 216 2 0.5564 6.206887803483298 2.832566802072732 -0.62457295651705 3 -1 0
1483 218 2 0.5564 8.961586092917763 3.6984099554109435 -1.7268272338178379 -6 3 0
2305 492 2 0.5564 8.734663419834636 5.190810409309515 -7.707801640276531 -1 -3 0
1482 218 2 0.5564 10.263387045442732 3.705749811605888 -2.4995859287369515 -6 3 0
3206 793 1 -1.1128 -0.4897868576580777 7.5555510123841 -11.271899083833556 1 1 0
1300 157 2 0.5564 6.233113078963905 3.58830651357327 -7.783420519072835 -4 4 0
2955 709 2 0.5564 0.1797351344387992 0.5670734552532016 -5.557667404900313 -1 4 0
953 42 1 -1.1128 11.911034949308814 0.5370167781386275 -1.0102329823114777 2 1 0
2499 557 2 0.5564 -0.05244903198114034 5.449988771406304 -4.449107695658356 4 3 0
1247 140 1 -1.1128 4.263714908462521 -0.24606951457712928 -2.8044841251424137 2 1 0
2396 523 1 -1.1128 10.758809558204392 2.399741950462576 -7.682482569818591 0 1 0
2558 577 1 -1.1128 11.060305169880781 5.401431106189552 -5.845742237643995 4 1 0
955 42 2 0.5564 11.485061998477857 -0.06983570963827083 -1.6156341173738769 2 1 0
2398 523 2 0.5564 10.709143913113198 3.268878470792418 -8.080436343116274 0 1 0
877 16 2 0.5564 12.719264425849355 1.1253950318378718 -5.627712134698883 2 -1 0
3575 916 1 -1.1128 7.896891118946276 3.696608270857239 -7.014347978981051 1 0 0
3576 916 2 0.5564 8.39421629309239 2.881380072872692 -6.948705334100932 1 0 0
833 2 1 -1.1128 8.705800217338462 1.0711199925361683 -6.462416205842771 -3 2 0
2812 661 2 0.5564 11.088468207913788 4.623329746102364 -0.5375054480979813 0 3 0
2559 577 2 0.5564 10.883752433944343 4.567749783453006 -5.409808146286783 4 1 0
901 24 2 0.5564 2.7353563700352894 7.016629711456734 -11.927959003448638 -1 -1 0
2579 584 1 -1.1128 7.150236485265497 -0.06479492821816933 -1.943623000740031 3 2 0
2355 509 2 0.5564 5.785083719615673 7.161282953846948 -1.3681989017830696 1 -3 0
1268 147 1 -1.1128 9.53372083878859 6.2582628083623035 -2.611053112201927 0 -2 0
2754 642 2 0.5564 9.939885365527445 2.4468735851124164 -4.019766908927683 0 0 0
1481 218 1 -1.1128 9.907028628664852 3.798953948411052 -1.6160960182057234 -6 3 0
900 24 2 0.5564 2.815874143724594 7.782488405577687 -10.624550732891603 -1 -1 0
876 16 2 0.5564 13.302987670189122 2.4882182088364546 -5.3213178678069255 2 -1 0
1409 194 1 -1.1128 8.127870263766738 1.926843170078366 -3.699947025796208 1 0 0
997 56 2 0.5564 7.227407797971685 5.494980823336001 -4.4680195764353146 5 -1 0
2046 406 2 0.5564 10.551000584668193 -0.10088288605910992 -9.916531706607216 0 0 0
1683 285 2 0.5564 13.57520238516438 6.316765777959042 -1.9068451577437766 -2 -4 0
2753 642 1 -1.1128 10.481040337593639 3.219376332850706 -4.18293484947167 0 0 0
3286 819 2 0.5564 13.04928760292438 3.4315898006237138 -1.6650929627447852 -1 1 0
886 19 2 0.5564 2.5228884775480607 0.31881639673015727 -5.942128883382549 -4 3 0
2954 709 1 -1.1128 -0.703813781805217 0.7913004108169749 -5.8497255249237625 -1 4 0
2580 584 2 0.5564 7.7115004680689445 0.44668264146051917 -2.526381387537713 3 2 0
1270 147 2 0.5564 9.74386935074011 5.395296915884733 -2.2541771482760486 0 -2 0
995 56 1 -1.1128 7.056183123977652 4.654534760498146 -4.043088816482228 5 -1 0
874 15 2 0.5564 12.525831824046389 5.1831795319880145 -3.4551785726371116 1 1 0
875 16 1 -1.1128 12.486911389515296 2.0519197844506984 -5.566054876184376 2 -1 0
2676 616 2 0.5564 0.8597333381790754 2.2550896523370145 -0.09136774953859989 -2 3 0
2755 642 2 0.5564 11.354961662621058 2.868385142137239 -4.354111686208257 0 0 0
1571 248 1 -1.1128 7.765113281182736 7.324225058877881 -4.674315249622865 -2 4 0
872 15 1 -1.1128 13.14729054254308 4.4835197843672585 -3.253938540570166 1 1 0
3284 819 1 -1.1128 13.44207218111378 2.8081501428099456 -1.0541296742048947 -1 1 0
1411 194 2 0.5564 7.656049862360196 2.757450114275202 -3.7608846132386176 1 0 0
3577 916 2 0.5564 7.619436241567299 3.8813748952004823 -6.117066317516098 1 0 0
1491 221 2 0.5564 13.808967180395031 6.5867435915400785 -11.311571749361521 -5 -1 0
3285 819 2 0.5564 12.924798581516795 2.009777999916719 -1.1602633121197647 -1 1 0
834 2 2 0.5564 9.548815709131903 1.4564683731318002 -6.701297321390267 -3 2 0
873 15 2 0.5564 13.877495103678742 4.6308948476615 -3.8550327800154984 1 1 0
3228 800 2 0.5564 4.343462322735959 4.787806440635599 -10.91725852683256 -1 0 0
3609 927 2 0.5564 0.4123955296790064 0.2029298327242405 -0.34506289014838115 3 0 0
1126 99 2 0.5564 4.290575112210453 7.591307800517905 -9.011701814664164 1 3 0
2712 628 2 0.5564 -1.002315726134343 6.130288672012981 -1.703094776246042 2 1 0
1351 174 2 0.5564 11.516846911707157 7.519692277058276 -3.519514334998568 0 2 0
899 24 1 -1.1128 2.2946426227125394 7.70013712501318 -11.423157730405977 -1 -1 0
3690 954 2 0.5564 10.811027739823787 7.688031455027394 -8.820606560983727 1 2 0
1572 248 2 0.5564 8.34219703027073 7.660931932277113 -5.359762966039701 -2 4 0
2173 448 2 0.5564 2.397086754663919 -0.6006171274842487 -2.075332774987907 6 0 0
2952 708 2 0.5564 14.0993514945942 -0.7028401909416857 -6.249940780377334 -3 -2 0
1167 113 2 0.5564 5.195964324287358 3.012606485860898 8.45765185643903 -2 0 0
3598 923 2 0.5564 10.437538018325606 3.1496668217145922 1.1303922274880407 -1 0 0
1753 308 2 0.5564 8.212628682433722 3.0315192251520453 1.926895950518749 -4 1 0
1751 308 1 -1.1128 7.355558625900956 3.363054986922018 2.1947600163796848 -4 1 0
1752 308 2 0.5564 6.78110014998806 2.5981399938335037 2.1610094547461194 -4 1 0
2861 678 1 -1.1128 3.6919311936897716 0.9636248353413401 4.183558151353989 2 1 0
2863 678 2 0.5564 3.3141114956233615 0.10083842413244036 4.01301295072462 2 1 0
2862 678 2 0.5564 3.0505304300346543 1.5804535060939715 3.8309095405432374 2 1 0
3281 818 1 -1.1128 3.815341796939141 4.6301033658431106 2.6547088034570843 -2 1 0
1476 216 2 0.5564 6.896471433063925 3.7936550599060763 0.3202462675468633 3 -1 0
3283 818 2 0.5564 4.698723895803554 4.99815816904512 2.634616804287194 -2 1 0
3282 818 2 0.5564 3.3538226336728236 5.074868858504968 1.9437822955765924 -2 1 0
2257 476 2 0.5564 6.785810081711274 -0.23587913101297472 10.378143301713989 2 -1 0
2034 402 2 0.5564 2.4641755920683543 3.517563552626045 3.328322541829358 -2 0 0
2033 402 1 -1.1128 1.7351209868111768 3.180689446253782 3.8491216813786746 -2 0 0
1828 333 2 0.5564 0.08311858975229264 2.7294909287715314 3.374771402066837 2 1 0
1971 381 2 0.5564 -1.6472110496916819 4.695303124695276 3.191427024244582 -1 2 0
2235 469 2 0.5564 6.964116280388675 5.877463742452286 3.5200879974792527 4 1 0
2234 469 1 -1.1128 6.151481727397176 6.382458538951979 3.549034131192308 4 1 0
436 2 4 0 9.82419 2.836 16.74620659931785 0 0 0
2467 546 2 0.5564 0.25630205903188336 1.9590133850619516 6.17676800438292 -1 0 0
1893 355 2 0.5564 10.414845805247712 0.8483733647371956 10.541070969961917 1 2 0
3802 991 2 0.5564 4.514235099525332 1.180869149101261 5.790609724683408 0 4 0
2465 546 1 -1.1128 0.30300492410668833 1.0053492384266698 6.244414948159001 -1 0 0
1826 333 1 -1.1128 -0.7406028848722586 2.5353632446554455 2.927524129134251 2 1 0
2466 546 2 0.5564 -0.5165676798583392 0.6969180654225561 5.857887150741235 -1 0 0
1601 258 1 -1.1128 9.106317506120662 6.112418431043267 4.205768636336021 -3 -1 0
3331 834 2 0.5564 3.633589445063723 -0.6685624656715259 8.183316870702612 1 -4 0
3801 991 2 0.5564 5.732009133651008 2.0719498020597293 5.912664153727432 0 4 0
1827 333 2 0.5564 -0.49172800571462205 2.4037485955470497 2.0126628013109285 2 1 0
1216 129 2 0.5564 -1.3577171409931859 2.3126040045618352 13.54201387776345 1 5 0
2236 469 2 0.5564 6.422070980431684 7.283027219030953 3.3701746052010018 4 1 0
1603 258 2 0.5564 9.997900232914903 6.374257157140419 4.435450468404679 -3 -1 0
2932 701 2 0.5564 13.0902207473788 1.6576098777638237 13.542553536086803 3 -1 0
3343 838 2 0.5564 3.0920752451540086 6.299391010350001 4.262774793908025 -2 -3 0
2035 402 2 0.5564 1.8483179888616974 3.5842344574596625 4.709689184925299 -2 0 0
2431 534 2 0.5564 8.6955612041955 7.602646975898731 0.18782839958462855 2 0 0
1398 190 2 0.5564 6.511484993631783 0.3464218361763889 5.540149632548341 2 3 0
1292 155 1 -1.1128 9.13446752637882 6.578753002227998 8.054642057020917 -3 1 0
2017 396 2 0.5564 -0.2967613690166698 5.900654335631814 9.50351293118645 3 2 0
949 40 2 0.5564 -1.60652881458936 1.1295121302986648 4.03963732642064 1 5 0
1894 355 2 0.5564 8.904948523025155 0.9558902274383209 10.5176507119676 1 2 0
3712 961 2 0.5564 3.8348368377211344 7.344422851147708 6.152928793400598 3 2 0
3715 962 2 0.5564 1.1724710679824382 6.870878106650959 0.6177509505326938 2 -1 0
859 10 2 0.5564 13.622782357534394 1.7190349017212836 2.1261607162441343 1 1 0
439 2 4 0 11.0522 2.127 16.74620659931785 0 0 0
3359 844 1 -1.1128 5.73712581990479 1.1150272134980022 2.2062305227111834 -3 1 0
3728 967 1 -1.1128 0.3276036819910625 -0.5895323738066666 12.881642942939385 -2 3 0
3610 927 2 0.5564 0.299293253210659 0.0723662820271734 1.1589506438236243 3 0 0
3800 991 1 -1.1128 5.221211343090217 1.4185415410926518 6.39055069598466 0 4 0
1602 258 2 0.5564 9.055372608962312 5.189712724253795 4.455269973880925 -3 -1 0
2229 467 2 0.5564 11.523194517203812 1.037348628584715 4.012394725307895 -3 -6 0
486 2 4 0 8.59617 4.963 16.74620659931785 0 0 0
3257 810 1 -1.1128 9.159624073480972 1.7360788945118995 5.62158181336866 -5 -3 0
2870 681 1 -1.1128 10.66006414987807 -0.006437591347537908 1.5733918706073857 1 0 0
2230 467 2 0.5564 13.015700973750533 1.2609764783507689 4.132020982425725 -3 -6 0
3259 810 2 0.5564 9.804466019565735 1.4867688340576852 6.283594097218446 -5 -3 0
1736 303 1 -1.1128 14.00256953008974 5.621848990690021 1.4392919589434479 -1 4 0
3711 961 2 0.5564 5.084441315728115 6.940619452566853 6.906145638445853 3 2 0
3383 852 1 -1.1128 7.314503292013347 3.615715136552984 5.1170328775065395 1 -3 0
3384 852 2 0.5564 7.216054704403563 3.5378668395365933 4.168096781761174 1 -3 0
3385 852 2 0.5564 8.046744631042131 3.037398252694135 5.3305858593015145 1 -3 0
902 25 1 -1.1128 11.371803357052896 3.771494081974057 3.662369930369742 -1 4 0
3361 844 2 0.5564 5.010283591018868 0.8820786074008063 2.7838716938816788 -3 1 0
1495 222 2 0.5564 -0.11953297678027816 -0.4202434390224158 11.172522088979616 0 3 0
1967 380 1 -1.1128 11.007795453178293 1.0681468484870709 7.357955048978727 3 0 0
904 25 2 0.5564 12.203545541763427 3.5877282642917567 3.2257152451908886 -1 4 0
1968 380 2 0.5564 10.619955238248792 0.7124618055169722 8.157518047177001 3 0 0
2904 692 2 0.5564 12.87792732399198 7.071086361578839 2.1265347308536002 5 0 0
903 25 2 0.5564 10.70800236627231 3.4045065149069758 3.078485545463437 -1 4 0
1397 190 1 -1.1128 7.272081505384126 -0.0848368703855949 5.150607239933824 2 3 0
2810 661 1 -1.1128 11.351313462890802 5.30206206011621 0.08416295218532811 0 3 0
1837 336 2 0.5564 12.205444150948077 6.754031650761977 3.8328529640354736 -2 -4 0
1176 116 2 0.5564 5.268647352530374 1.401486642763523 0.317715741804212 -3 -2 0
1080 84 2 0.5564 1.0915619032753758 7.026246449711555 5.968840480500301 -2 -1 0
1835 336 1 -1.1128 11.774703352190505 6.2452213970095505 4.519735372855343 -2 -4 0
1079 84 1 -1.1128 0.3814061781477803 7.441221547982662 6.458443124337027 -2 -1 0
1123 98 2 0.5564 11.920237775600455 6.775978635663636 6.598315245333847 -2 4 0
2576 583 1 -1.1128 9.46409837372823 6.771076657447982 1.6333303318080281 4 3 0
857 10 1 -1.1128 13.60793166646643 2.5246252123987625 2.642920677601107 1 1 0
2228 467 1 -1.1128 12.315420987455163 0.6664357384355263 4.4010264043411125 -3 -6 0
2973 715 2 0.5564 1.9681235842047529 4.6490873827039145 0.36929386165063305 0 2 0
1948 373 2 0.5564 8.678695435992648 3.0497330630010953 7.521046606613643 1 1 0
1946 373 1 -1.1128 9.31408198190983 3.52135766429746 8.059643425543243 1 1 0
1947 373 2 0.5564 8.819865071343761 3.7896671614565993 8.834235864803071 1 1 0
2811 661 2 0.5564 10.527533248938774 5.6253933945100725 0.4489628914393263 0 3 0
3608 927 1 -1.1128 0.29889864752687006 0.7189258421956083 0.45312217483274225 3 0 0
2872 681 2 0.5564 11.605607500291658 -0.013579306914319831 1.722151221297343 1 0 0
3596 923 1 -1.1128 10.00331819666676 2.598275450831509 1.7812790038198398 -1 0 0
487 2 4 0 8.59617 6.381 16.74620659931785 0 0 0
2632 601 2 0.5564 -1.3829275213716667 3.3102029054182767 8.604113349947653 1 1 0
484 2 4 0 7.36814 7.09 16.74620659931785 0 0 0
2931 701 2 0.5564 13.310840986847811 0.46208885826170115 14.444746880149193 3 -1 0
981 51 2 0.5564 -1.5709141691339947 0.9655266246464611 0.3007813104044586 2 1 0
1836 336 2 0.5564 11.569750429156938 5.407270280301192 4.104927075126224 -2 -4 0
3484 885 2 0.5564 1.8020613877290004 7.310517349052472 8.795100481115773 -3 0 0
491 2 4 0 11.0522 6.381 16.74620659931785 0 0 0
1902 358 2 0.5564 12.294639080253969 3.7078072276238245 12.975896589266627 -3 2 0
437 2 4 0 12.2802 0 16.74620659931785 0 0 0
3597 923 2 0.5564 10.397578847121352 1.7338344479959054 1.6649228236847826 -1 0 0
488 2 4 0 9.82419 7.09 16.74620659931785 0 0 0
1166 113 1 -1.1128 5.579661210179382 3.8550913181904196 8.701020290691334 -2 0 0
2631 601 2 0.5564 -1.5377887185988324 3.5182482907145434 7.112593588605738 1 1 0
442 2 4 0 13.5083 0.709 16.74620659931785 0 0 0
2578 583 2 0.5564 9.238500124156126 6.4935169355209705 2.5211949881069957 4 3 0
1168 113 2 0.5564 4.852043227284418 4.350536022404386 9.076974344512308 -2 0 0
3730 967 2 0.5564 1.1896885311693446 -0.289537277973162 12.593466954147177 -2 3 0
3342 838 2 0.5564 2.7886607607282805 7.759736899312563 4.522057817350264 -2 -3 0
2930 701 1 -1.1128 13.71318212689402 0.9554399678018854 13.729933220998868 3 -1 0
429 2 4 0 7.36814 0 16.74620659931785 0 0 0
3428 867 1 -1.1128 14.050102413152297 0.09375570217579787 1.6342107811596709 0 -2 0
2848 673 2 0.5564 -1.1022340992438031 7.75031793514967 12.914121665175355 -8 0 0
3330 834 2 0.5564 4.863674626396981 -0.18248973483193262 7.44675700855372 1 -4 0
2856 676 2 0.5564 13.420426238430066 0.07185695241347222 5.995811230604521 -3 -3 0
2296 489 2 0.5564 1.3228561040747087 -0.49951437554263367 8.8591078595621 -3 1 0
3729 967 2 0.5564 -0.09113651852250179 0.1928220913332753 13.240549146328144 -2 3 0
1122 98 2 0.5564 12.282790568594939 6.950508105425194 8.057764400584402 -2 4 0
1215 129 2 0.5564 0.12308068881377951 2.530197180612504 13.769582699486511 1 5 0
494 2 4 0 13.5083 4.963 16.74620659931785 0 0 0
2857 676 2 0.5564 12.709545385376837 0.5288155626171336 7.2518895764896305 -3 -3 0
2294 489 1 -1.1128 1.7835959772158354 -0.14615507863972613 8.09812939372484 -3 1 0
2402 525 1 -1.1128 2.566432272294671 1.360199401942364 11.347561482071496 3 4 0
485 2 4 0 9.82419 4.254 16.74620659931785 0 0 0
1763 312 1 -1.1128 2.0604658982497166 3.3164488222894937 13.319093523840312 1 -1 0
1764 312 2 0.5564 1.857013073550559 2.6074777939449456 12.709011880440265 1 -1 0
1294 155 2 0.5564 8.694128180231711 5.81054084334828 7.69107135660274 -3 1 0
2295 489 2 0.5564 1.1405083786649404 0.41818001414079503 7.668947460243758 -3 1 0
1720 297 2 0.5564 0.30672980350348683 5.760883654965462 11.997225298863754 0 2 0
2847 673 2 0.5564 -1.6587184949460478 6.472877037724917 12.32220462979868 -8 0 0
893 22 1 -1.1128 2.2158614190269064 3.7421559417368795 6.447136660166693 2 -3 0
3618 930 2 0.5564 3.1419253499810913 6.018907689313954 9.999570592163092 -3 -2 0
3617 930 1 -1.1128 3.980244155515926 5.616355685174767 10.226301309780776 -3 -2 0
3619 930 2 0.5564 4.617809753024994 6.325152976440919 10.140554002734048 -3 -2 0
2150 441 1 -1.1128 4.3869947285025646 5.664841512626566 12.969494224249228 -1 -5 0
2151 441 2 0.5564 4.281978641611592 5.6192053605653465 12.019165413276898 -1 -5 0
2152 441 2 0.5564 3.6819398094485707 5.11759860056623 13.315406601622268 -1 -5 0
894 22 2 0.5564 3.114271694366225 4.067357476454472 6.504890246281829 2 -3 0
895 22 2 0.5564 1.9936439566416464 3.4904917673501585 7.343530761658621 2 -3 0
2846 673 1 -1.1128 -0.8724428307627936 6.840378301522159 12.725870575832339 -8 0 0
1719 297 2 0.5564 0.7562554200377647 4.810986207698455 10.90749098085244 0 2 0
1718 297 1 -1.1128 1.0050971750990774 5.147601334686817 11.768304652709045 0 2 0
3199 790 2 0.5564 1.8601023695679157 1.6862009062439565 8.713829963721908 3 3 0
3197 790 1 -1.1128 1.9499810452717836 2.6151770184286587 8.92633884010761 3 3 0
3198 790 2 0.5564 2.2840729213408912 2.624946220594139 9.823289969932038 3 3 0
2403 525 2 0.5564 3.3973566822435752 1.4701094694081183 11.809858077639928 3 4 0
1765 312 2 0.5564 1.8687252436666923 4.116504800799919 12.829830128627352 1 -1 0
1214 129 1 -1.1128 -0.5496036764927014 1.8492608465530325 13.762239429434654 1 5 0
2016 396 2 0.5564 0.24307599998363769 5.160577871771548 8.29820739146175 3 2 0
1402 191 2 0.5564 1.282506700130664 -0.3593558206837726 5.106713767913213 -1 -1 0
3470 881 1 -1.1128 4.624239948155341 1.6905900021081237 13.566598485891346 1 8 0
1225 132 2 0.5564 13.453280781206296 5.479238707050506 7.343184071795498 1 4 0
438 2 4 0 11.0522 0.709 16.74620659931785 0 0 0
2972 715 1 -1.1128 2.444226222142721 5.442173649712014 0.6154166984671539 0 2 0
1399 190 2 0.5564 7.594674715344823 -0.668663894820191 5.837130749148703 2 3 0
1892 355 1 -1.1128 9.652016879378866 0.6739160773517522 9.989809668378738 1 2 0
2404 525 2 0.5564 2.633473007831804 0.4991342038591787 10.934879160455075 3 4 0
3258 810 2 0.5564 8.536354642384294 1.0097246115474827 5.60814981208772 -5 -3 0
3360 844 2 0.5564 6.370622808186966 0.4065195205701374 2.319954360383857 -3 1 0
1716 296 2 0.5564 12.562197155019588 2.2261526882064397 10.134378660658532 0 2 0
1737 303 2 0.5564 13.188156576839868 5.172155257462886 1.214033536074267 -1 4 0
2988 720 2 0.5564 12.522989170329444 5.994498507391047 11.58692828346309 0 0 0
1121 98 1 -1.1128 11.871436292923013 6.337953395096222 7.448011774189664 -2 4 0
1969 380 2 0.5564 10.89242195241092 2.0151609785455484 7.435969361761882 3 0 0
2015 396 1 -1.1128 0.44817974071285094 5.873556393154407 8.90304382771946 3 2 0
1874 349 1 -1.1128 8.346403397313045 6.965550634464421 11.115641154988769 4 0 0
2550 574 2 0.5564 -1.59332926739593 7.00291733987349 3.8863077592430204 -2 2 0
1493 222 1 -1.1128 -0.17084130852182472 -0.34850870774689485 10.219390766426105 0 3 0
1901 358 1 -1.1128 11.808450807178867 2.890519390647138 12.866815175508032 -3 2 0
3701 958 1 -1.1128 7.573786217106497 1.2270457529047385 11.52933097752101 4 2 0