LAMMPS data file via write_data, version 2 Aug 2023, timestep = 7500000, units = real

3832 atoms
4 atom types
2000 bonds
1 bond types
1000 angles
1 angle types
0 impropers
1 improper types

-1.8420299999999998 30.08661 xlo xhi
-0.709 33.323 ylo yhi
-150 150 zlo zhi

Masses

1 15.9994
2 1.00794
3 12.0107
4 12.0107

Pair Coeffs # lj/cut/tip4p/long

1 0.1852 3.1589
2 0 0
3 0.0859 3.3997
4 0.0859 3.3997

Bond Coeffs # harmonic

1 5000 0.9572

Angle Coeffs # harmonic

1 500 104.52

Atoms # full

1 1 3 0 0 0 -14.519096394668605 0 0 0
2 1 3 0 -1.22802 0.709 -14.519096394668605 0 0 0
3 1 3 0 -1.22802 2.127 -14.519096394668605 0 0 0
4 1 3 0 0 2.836 -14.519096394668605 0 0 0
5 1 3 0 2.45605 0 -14.519096394668605 0 0 0
6 1 3 0 1.22802 0.709 -14.519096394668605 0 0 0
7 1 3 0 1.22802 2.127 -14.519096394668605 0 0 0
8 1 3 0 2.45605 2.836 -14.519096394668605 0 0 0
9 1 3 0 4.9121 0 -14.519096394668605 0 0 0
10 1 3 0 3.68407 0.709 -14.519096394668605 0 0 0
11 1 3 0 3.68407 2.127 -14.519096394668605 0 0 0
12 1 3 0 4.9121 2.836 -14.519096394668605 0 0 0
14 1 3 0 6.14012 0.709 -14.519096394668605 0 0 0
15 1 3 0 6.14012 2.127 -14.519096394668605 0 0 0
53 1 3 0 0 4.254 -14.519096394668605 0 0 0
54 1 3 0 -1.22802 4.963 -14.519096394668605 0 0 0
55 1 3 0 -1.22802 6.381 -14.519096394668605 0 0 0
56 1 3 0 0 7.09 -14.519096394668605 0 0 0
57 1 3 0 2.45605 4.254 -14.519096394668605 0 0 0
58 1 3 0 1.22802 4.963 -14.519096394668605 0 0 0
59 1 3 0 1.22802 6.381 -14.519096394668605 0 0 0
60 1 3 0 2.45605 7.09 -14.519096394668605 0 0 0
61 1 3 0 4.9121 4.254 -14.519096394668605 0 0 0
62 1 3 0 3.68407 4.963 -14.519096394668605 0 0 0
63 1 3 0 3.68407 6.381 -14.519096394668605 0 0 0
64 1 3 0 4.9121 7.09 -14.519096394668605 0 0 0
66 1 3 0 6.14012 4.963 -14.519096394668605 0 0 0
67 1 3 0 6.14012 6.381 -14.519096394668605 0 0 0
3165 779 2 0.5564 3.297010773461157 4.523930040016647 -11.117718280859567 -1 1 0
1063 78 2 0.5564 0.14057643983388865 2.2449620901464447 -8.8117442344998 -2 -1 0
3164 779 1 -1.1128 2.549532454769593 3.928636536695679 -11.173711573363354 -1 1 0
3166 779 2 0.5564 1.811663093355171 4.49134205535865 -11.408538106771642 -1 1 0
2948 707 1 -1.1128 -0.6149405279058034 4.364810516563064 -10.951557624100975 2 -1 0
2950 707 2 0.5564 -0.22249083436331518 3.504033034542576 -11.097426505585053 2 -1 0
2769 647 2 0.5564 7.312607705204981 6.305479557011937 -0.45597607940245277 4 0 0
2856 676 2 0.5564 0.6653507159680309 0.9768022883802667 -10.710161989852882 -2 -4 0
2855 676 1 -1.1128 0.8706518004910113 1.8725337526151087 -10.442298712010311 -2 -4 0
2568 580 2 0.5564 2.430142786945512 4.156798194393445 -9.159642618602039 0 -4 0
2857 676 2 0.5564 1.8190029971834603 1.8727927195263803 -10.312434908775717 -2 -4 0
1146 106 2 0.5564 11.043752241045764 0.18171533836024942 -10.551743872562426 2 3 0
3297 823 2 0.5564 -0.6823264281959909 6.178078415005344 -11.061416684332446 -2 -2 0
894 22 2 0.5564 3.538167240015499 1.7139151233095236 -8.742800635368715 1 -4 0
893 22 1 -1.1128 3.5565930752461754 1.4502260664295847 -9.662779342474192 1 -4 0
2979 717 2 0.5564 3.1103105816336125 0.013623661511844765 -10.41833356356354 2 6 0
895 22 2 0.5564 3.960111359926314 2.190195276544 -10.116487878391228 1 -4 0
3296 823 1 -1.1128 -0.7380676852243606 7.121533178980889 -11.213148221259344 -2 -2 0
3298 823 2 0.5564 -0.9790756426789874 7.4876300450583395 -10.362194671888915 -2 -2 0
2567 580 1 -1.1128 2.4143577254895647 4.021965060915009 -8.212117662436663 0 -4 0
2763 645 2 0.5564 13.130746330622479 2.0422372113810594 -1.3171026468278404 0 1 0
1062 78 2 0.5564 0.7618287755362932 2.828080129357786 -7.560378681936709 -2 -1 0
2569 580 2 0.5564 3.3224434313083107 4.147477212002164 -7.936692043432529 0 -4 0
2935 702 2 0.5564 13.644276183665603 5.296687891018388 -4.863964987898808 1 -2 0
1095 89 2 0.5564 12.129703915291929 1.3105222450714256 -8.576060860728138 -5 -2 0
3398 857 1 -1.1128 7.0175984017206865 3.504938973813603 -0.44496507606879526 0 4 0
1313 162 1 -1.1128 2.004201823385739 0.9218535723794229 -7.122515941033843 3 1 0
1315 162 2 0.5564 1.171173687010813 1.2421908947559361 -7.468470674177598 3 1 0
1145 106 1 -1.1128 10.580231223203171 -0.1651560746398523 -11.314017152462434 2 3 0
859 10 2 0.5564 -0.32343122332451846 -0.5073096657306179 -1.528037356409977 1 0 0
2637 603 2 0.5564 14.015968153237194 5.570082651185329 -9.498843197269117 1 -1 0
2494 555 2 0.5564 -0.9969498601477368 4.159038649556654 -8.00895899720968 1 0 0
2762 645 1 -1.1128 13.403513355977527 1.4063599705850798 -1.9785343368767827 0 1 0
1954 375 2 0.5564 4.689052391719656 -0.6692509290578724 -11.412419217713468 -2 3 0
2413 528 2 0.5564 1.612251332024769 -0.579086715579291 -0.475004516142222 1 -2 0
1974 382 2 0.5564 8.091074742089694 6.44221199574258 -11.287721114317685 0 2 0
3754 975 2 0.5564 4.457755614740117 6.17568585133067 -2.8042182156838242 4 -1 0
2715 629 2 0.5564 12.998036852212614 4.856485160516151 -11.517509127926045 -1 0 0
1527 233 2 0.5564 5.9979783244121405 2.9361948667412143 -9.961134000783765 1 0 0
3760 977 2 0.5564 10.774985737487023 5.150696897753354 -11.811864850234127 -3 -2 0
13 1 3 0 7.36814 0 -14.519096394668605 0 0 0
16 1 3 0 7.36814 2.836 -14.519096394668605 0 0 0
17 1 3 0 9.82419 0 -14.519096394668605 0 0 0
18 1 3 0 8.59617 0.709 -14.519096394668605 0 0 0
19 1 3 0 8.59617 2.127 -14.519096394668605 0 0 0
20 1 3 0 9.82419 2.836 -14.519096394668605 0 0 0
21 1 3 0 12.2802 0 -14.519096394668605 0 0 0
22 1 3 0 11.0522 0.709 -14.519096394668605 0 0 0
23 1 3 0 11.0522 2.127 -14.519096394668605 0 0 0
24 1 3 0 12.2802 2.836 -14.519096394668605 0 0 0
26 1 3 0 13.5083 0.709 -14.519096394668605 0 0 0
27 1 3 0 13.5083 2.127 -14.519096394668605 0 0 0
65 1 3 0 7.36814 4.254 -14.519096394668605 0 0 0
68 1 3 0 7.36814 7.09 -14.519096394668605 0 0 0
69 1 3 0 9.82419 4.254 -14.519096394668605 0 0 0
70 1 3 0 8.59617 4.963 -14.519096394668605 0 0 0
71 1 3 0 8.59617 6.381 -14.519096394668605 0 0 0
72 1 3 0 9.82419 7.09 -14.519096394668605 0 0 0
73 1 3 0 12.2802 4.254 -14.519096394668605 0 0 0
74 1 3 0 11.0522 4.963 -14.519096394668605 0 0 0
75 1 3 0 11.0522 6.381 -14.519096394668605 0 0 0
76 1 3 0 12.2802 7.09 -14.519096394668605 0 0 0
78 1 3 0 13.5083 4.963 -14.519096394668605 0 0 0
79 1 3 0 13.5083 6.381 -14.519096394668605 0 0 0
2080 417 2 0.5564 9.494074085013429 3.703939593095284 -11.094407206667274 -1 1 0
2078 417 1 -1.1128 8.895447615273788 2.960212685306706 -11.02548585038836 -1 1 0
3758 977 1 -1.1128 11.319367621340092 4.449133219745491 -11.454525653859381 -3 -2 0
3759 977 2 0.5564 11.160934219751688 4.479340662831859 -10.511010362388037 -3 -2 0
2079 417 2 0.5564 9.453148641250767 2.1914207194214446 -11.144487760742777 -1 1 0
3460 877 2 0.5564 5.557382855183585 6.10322336701751 -9.774072327202264 5 4 0
3458 877 1 -1.1128 6.414285738039447 5.999179954272089 -9.360398684268683 5 4 0
3459 877 2 0.5564 6.269037993449473 5.356802488875636 -8.665785915681765 5 4 0
3004 725 2 0.5564 8.222570889278009 2.9914828483106053 -9.41623506354464 -2 1 0
3003 725 2 0.5564 7.418252705156322 3.070062206486192 -8.136079397865768 -2 1 0
2347 506 2 0.5564 7.561638035044032 7.304949132232425 -9.010537288576701 -1 -3 0
2933 702 1 -1.1128 13.075860848183156 4.827383442563728 -4.253317376166425 1 -2 0
1528 233 2 0.5564 6.924941414182252 2.7658090689866794 -11.145872492028808 1 0 0
3002 725 1 -1.1128 8.290671331124377 3.235958564275471 -8.493288156360368 -2 1 0
1526 233 1 -1.1128 6.159913610971275 2.3775498149778524 -10.721348293088225 1 0 0
1953 375 2 0.5564 5.791285118686396 0.27041977513372123 -10.971966995945264 -2 3 0
3718 963 2 0.5564 5.741698946473895 0.18423743206728113 -7.834684994254873 -2 -2 0
1973 382 1 -1.1128 9.035599024955983 6.324548216159532 -11.186422676160648 0 2 0
2438 537 1 -1.1128 12.984476704339507 2.907122037603308 -8.679541918912 2 -2 0
2440 537 2 0.5564 13.059914961994934 3.8466945692921892 -8.846109330776809 2 -2 0
1029 67 2 0.5564 -0.3573857748881885 -0.7030234797372686 -10.418742781724248 1 3 0
3716 963 1 -1.1128 5.653339565661751 1.0053577901601964 -7.350752155286195 -2 -2 0
1760 311 1 -1.1128 13.59693615518967 6.683692692680165 -2.1083833830319376 0 1 0
2365 512 2 0.5564 4.6136382110781 0.7306916521953672 -0.818161051915264 2 0 0
1952 375 1 -1.1128 5.640837711699618 -0.5676134444067701 -11.4093472773165 -2 3 0
3732 968 2 0.5564 10.682638034876534 7.19274124433453 -8.013471580418555 -2 0 0
960 44 2 0.5564 9.490931059738818 4.90482414494678 -8.72467810863448 2 1 0
2534 569 1 -1.1128 6.687547112355624 -0.4804777024284342 -3.9093597110969136 -1 1 0
3277 816 2 0.5564 -0.6526604615691394 1.7815657067031738 -0.6702264118531204 -2 3 0
961 44 2 0.5564 10.64201989404202 4.864595300037118 -7.742194703988436 2 1 0
959 44 1 -1.1128 10.357863577161199 5.275178389456521 -8.558841126634142 2 1 0
3292 821 2 0.5564 10.091048125039245 2.4543567876849575 -2.623353600708469 2 -2 0
1190 121 1 -1.1128 9.118226191159906 0.9620863838845664 -2.5967922564602945 1 1 0
1107 93 2 0.5564 -1.5656360576748973 1.3571347900640438 -7.2564392885098945 -3 -2 0
2949 707 2 0.5564 -1.5333995128551032 4.17972121183777 -10.755575939227159 2 -1 0
1061 78 1 -1.1128 -0.029191977094981465 2.3954140571827045 -7.881810869619278 -2 -1 0
2493 555 2 0.5564 -1.716364419630913 4.342108706863645 -6.689555938566812 1 0 0
2535 569 2 0.5564 7.311880787927936 -0.16262605715819412 -3.2571249797286157 -1 1 0
2515 562 2 0.5564 11.863628809459284 6.396838522401599 -0.4081465927831441 -1 -2 0
3347 840 1 -1.1128 1.2062515450045335 7.127057754151694 -3.639197426720076 4 6 0
2104 425 2 0.5564 0.9873285586854764 3.3081862152385453 -0.030349205640553295 1 -3 0
3304 825 2 0.5564 3.564362455359171 6.7653047395029136 -11.403339848741831 -6 -3 0
2845 672 2 0.5564 5.107189457955156 3.435763364381884 -2.852536824379991 -3 -3 0
3666 946 2 0.5564 13.02532111841319 1.692710480191598 -4.299350830495176 2 1 0
3348 840 2 0.5564 1.326375077142437 6.58343478573508 -4.4178358839502 4 6 0
2364 512 2 0.5564 4.558968536060165 1.5662600190150369 -2.0794036319432565 2 0 0
3302 825 1 -1.1128 4.3204542411695765 6.189326520092088 -11.290157605357981 -6 -3 0
1094 89 1 -1.1128 11.663080429687842 0.47596622289233675 -8.620944576679305 -5 -2 0
1006 59 2 0.5564 -1.2259239534844386 3.7718624847908253 -4.554602064812506 1 2 0
2727 633 2 0.5564 1.614458324422753 4.911192593986878 -6.363955244453757 2 -1 0
3349 840 2 0.5564 0.25691030503901036 7.206678502414187 -3.546222224803521 4 6 0
1314 162 2 0.5564 1.8504058571784954 0.819069001224695 -6.18335852445143 3 1 0
2173 448 2 0.5564 1.7095576239048733 5.342561552061802 -1.1414512884751606 5 0 0
2728 633 2 0.5564 2.9529886896769515 5.511799670583151 -5.9904541523069685 2 -1 0
2726 633 1 -1.1128 2.0970113179216487 5.285325792176642 -5.62679865929416 2 -1 0
2130 434 2 0.5564 1.0415065880775058 1.3681039625803597 -4.259022771292833 -4 0 0
2171 448 1 -1.1128 1.637691137442848 4.412076158696945 -1.3542078021579997 5 0 0
2131 434 2 0.5564 1.4546658773708445 -0.08289076839171368 -4.1332800720367855 -4 0 0
2843 672 1 -1.1128 5.738332850455146 2.7198974170064907 -2.9262122327992333 -3 -3 0
3275 816 1 -1.1128 -1.3103831543157143 1.2762412240963958 -1.1480131206448785 -2 3 0
2129 434 1 -1.1128 1.80775313458635 0.7947826398830196 -4.27906653629691 -4 0 0
3291 821 2 0.5564 11.067487562481968 3.3951813187106583 -1.9500692090623428 2 -2 0
3527 900 1 -1.1128 5.3747210955437374 3.5603783634623953 -8.099387570919676 -3 4 0
1762 311 2 0.5564 13.783009055365937 7.454328241082333 -2.6447894070995024 0 1 0
3752 975 1 -1.1128 4.521547682630023 5.26203607617849 -3.08244508482465 4 -1 0
2051 408 1 -1.1128 8.702261781274546 1.4548007447005356 -0.010252295913462717 0 -1 0
2411 528 1 -1.1128 1.8528537376927074 0.30481038083995254 -0.19739049570876188 1 -2 0
3456 876 2 0.5564 0.9034625027467555 3.8897858999753794 -2.9211808072396677 -4 5 0
2172 448 2 0.5564 2.5315701713457446 4.145193556632092 -1.56865515431177 5 0 0
3457 876 2 0.5564 1.2780430040302513 4.104483704803165 -4.372211819639508 -4 5 0
3529 900 2 0.5564 5.058736306128137 4.10170281784551 -7.37595264497757 -3 4 0
2229 467 2 0.5564 3.7602151245360367 1.1327294744657175 -4.4201169496932184 -2 -7 0
889 20 2 0.5564 14.046866739465429 7.451288047239162 -11.362034865846626 0 -1 0
1761 311 2 0.5564 13.532704677044135 5.9640685018094 -2.7362771328726296 0 1 0
3455 876 1 -1.1128 0.6075755165864424 3.710973457006952 -3.81376858142915 -4 5 0
2492 555 1 -1.1128 -1.275082551257037 4.829640420587284 -7.385125352661072 1 0 0
2363 512 1 -1.1128 4.042964526113141 0.9556429716130584 -1.5529823686505622 2 0 0
1192 121 2 0.5564 8.779188543444201 1.1473841779464997 -1.7210346004238335 1 1 0
1975 382 2 0.5564 9.385854659284039 7.214646560016577 -11.150657484390093 0 2 0
1970 381 1 -1.1128 -1.621183378282995 7.596012521010679 -2.9819366389582327 -2 2 0
3399 857 2 0.5564 6.753962931801526 4.41283706568181 -0.594796846586398 0 4 0
2714 629 1 -1.1128 13.890561078195097 4.975801923699632 -11.192860836870976 -1 0 0
2540 571 1 -1.1128 8.915805402430113 3.579572012814755 -4.747976838753922 0 -3 0
1191 121 2 0.5564 9.398859708695715 0.04781366809590246 -2.557006642553633 1 1 0
1647 273 2 0.5564 11.774926489468399 4.888494782551655 -5.210029422115306 2 1 0
2439 537 2 0.5564 13.76185744466628 2.6915530929543894 -8.164331585889125 2 -2 0
1646 273 1 -1.1128 10.943426969420198 5.064814145869502 -5.650202973424035 2 1 0
1558 243 2 0.5564 7.48962001498752 4.886784844625577 -4.94477857170908 3 -7 0
1210 127 2 0.5564 9.268303183812488 5.106941459921433 -1.145525597389485 0 0 0
3667 946 2 0.5564 12.144686734206886 1.7970133419169834 -5.526338781548488 2 1 0
2230 467 2 0.5564 5.1592676244965014 0.5605794292816529 -4.335243548410754 -2 -7 0
2412 528 2 0.5564 2.5544442520789152 0.5616551869885295 -0.7957543909170202 1 -2 0
3717 963 2 0.5564 5.154943819419587 0.7702251005791427 -6.568095103282104 -2 -2 0
882 18 2 0.5564 10.362325206703801 1.0297961783971308 -7.360473860092734 1 1 0
1557 243 2 0.5564 7.354309627083988 6.361645328293648 -5.2584280024448065 3 -7 0
883 18 2 0.5564 9.443979335696817 2.227180982148036 -7.482160401918667 1 1 0
3400 857 2 0.5564 6.958328822641668 3.092493807468722 -1.3067126327448182 0 4 0
881 18 1 -1.1128 9.677129008956912 1.5087046185758102 -6.8942244473556356 1 1 0
1208 127 1 -1.1128 9.17310158549668 6.011104082330841 -0.8460945005723933 0 0 0
1096 89 2 0.5564 12.328969540528288 -0.18229560672787076 -8.422155447905558 -5 -2 0
1240 137 2 0.5564 -1.4139050561233315 7.263666349552136 -7.81511616562155 -2 -2 0
2768 647 1 -1.1128 6.427625406282705 6.286582254180899 -0.09171927571782477 4 0 0
3290 821 1 -1.1128 10.344187353011607 3.37630071257919 -2.57673728476445 2 -2 0
2228 467 1 -1.1128 4.614725831383216 1.1554382922364814 -4.85085266706615 -2 -7 0
1409 194 1 -1.1128 11.989151575760127 3.1151370592680925 -0.28607430170756903 1 -1 0
2101 424 2 0.5564 4.032610620968025 -0.6033962145963133 -2.420053244919425 2 5 0
2844 672 2 0.5564 5.413329101532649 2.187167650259964 -3.6520273287613643 -3 -3 0
2541 571 2 0.5564 9.451256433901499 3.411504247324059 -3.97255550174263 0 -3 0
3528 900 2 0.5564 5.444045396321334 2.6807105307297094 -7.728414599110843 -3 4 0
3753 975 2 0.5564 5.29649613522586 5.23563094795601 -3.6436871686160703 4 -1 0
3665 946 1 -1.1128 13.015334328027405 2.0217498927141517 -5.198164471237622 2 1 0
2542 571 2 0.5564 8.968372191865894 2.7700093777989787 -5.255989594669897 0 -3 0
964 45 2 0.5564 5.230905780395877 5.783012443134423 -6.072912833808955 -1 0 0
962 45 1 -1.1128 4.550920669917863 5.695249342656718 -6.740857881427915 -1 0 0
1209 127 2 0.5564 9.037738200562185 6.516388188323046 -1.6477165529110966 0 0 0
1556 243 1 -1.1128 6.840009485402543 5.58210535307748 -5.048559088834052 3 -7 0
2934 702 2 0.5564 13.314832453548545 3.9069008909205705 -4.3621128574119545 1 -2 0
1648 273 2 0.5564 10.328902788279478 4.4430873900716525 -5.260269531600929 2 1 0
963 45 2 0.5564 4.480135468646291 6.56806894985989 -7.127393256605542 -1 0 0
2764 645 2 0.5564 13.311387556865423 0.556857761086851 -1.5471423468845305 0 1 0
1776 316 2 0.5564 8.443018041394806 -0.39270394785825935 -6.313168840548069 -3 3 0
1365 179 2 0.5564 10.529306762896551 6.90839785227778 -5.251429101239813 3 0 0
2951 708 1 -1.1128 4.158626858846511 7.7935386533966176 -8.19469047598466 -3 -2 0
3171 781 2 0.5564 1.097307895895615 7.696067155596785 -11.641312151947108 -1 5 0
3303 825 2 0.5564 5.015577893615003 6.602323918170218 -11.802474470206358 -6 -3 0
2770 647 2 0.5564 5.907650886909858 6.815306349447614 -0.6969552526100321 4 0 0
3170 781 1 -1.1128 1.9751685551925053 7.792081734785273 -11.272023322682594 -1 5 0
1972 381 2 0.5564 -1.5042842336685058 7.102352577384139 -2.170230702512694 -2 2 0
1590 254 2 0.5564 13.986385725980067 2.2551488728927676 -10.471872771097306 3 5 0
1404 192 2 0.5564 3.4843021878852336 0.1415828741746047 2.502962580748199 2 -2 0
1405 192 2 0.5564 4.8615852097056695 -0.2908065236231783 2.959068650567799 2 -2 0
1403 192 1 -1.1128 4.1588947174696305 -0.520274011870469 2.350951666003069 2 -2 0
3336 836 2 0.5564 5.352234566139777 5.192418504489239 2.7042669171006857 1 2 0
2974 715 2 0.5564 1.3480795694805836 1.7962395965824443 4.127266181282893 0 2 0
2030 401 1 -1.1128 2.4864995401703904 1.7368870623620236 2.663417055561106 1 0 0
1514 229 1 -1.1128 3.784174252256402 4.293766840516177 3.2029042443799276 1 1 0
2407 526 2 0.5564 1.8785878516351533 4.097438745995729 6.610157606302376 -1 2 0
2405 526 1 -1.1128 1.8774137533489939 5.009160606975441 6.318611896041952 -1 2 0
1201 124 2 0.5564 1.015479423303688 5.994667908756825 4.071618361839538 2 3 0
2469 547 2 0.5564 4.939939603789216 1.9872674161547275 8.631530513714898 -1 -2 0
2468 547 1 -1.1128 4.34365004943514 1.4319082609227574 8.129284198304232 -1 -2 0
2032 401 2 0.5564 1.723230300514533 1.959820557277836 2.130542224075564 1 0 0
2406 526 2 0.5564 2.8035817780428727 5.244213779127297 6.262033572993185 -1 2 0
1515 229 2 0.5564 3.9042490727832786 3.972788042533188 4.096653141860707 1 1 0
2031 401 2 0.5564 2.9875473178968153 2.5506954242256237 2.717284742979529 1 0 0
2526 566 2 0.5564 5.3359814931572345 5.91702030409362 7.456961211687168 -3 -3 0
2421 531 2 0.5564 13.760728703354436 0.705343087982752 8.812929766629855 5 0 0
1580 251 1 -1.1128 12.316598150153085 5.8779671949194015 13.235601252929792 1 -7 0
2525 566 1 -1.1128 4.64111915373931 6.021800995635175 6.807020992148555 -3 -3 0
3645 939 2 0.5564 4.652339343548113 2.0097939715146236 6.268897360073434 -1 2 0
3147 773 2 0.5564 -1.4003124587880051 3.5222637377721138 6.024226254720978 2 0 0
2470 547 2 0.5564 4.832131259678933 0.6207968132442192 7.988854058580536 -1 -2 0
3074 749 1 -1.1128 -0.6049808509969121 5.109092558046619 1.5116868643313202 -1 0 0
3738 970 2 0.5564 2.411403728844092 -0.1649389844641545 9.904505158019399 1 -1 0
983 52 1 -1.1128 12.94607965112529 0.7691819774365438 10.463365080265067 1 3 0
3148 773 2 0.5564 -0.7592490457181568 2.400911123817513 5.234604610146783 2 0 0
2527 566 2 0.5564 4.629530117482832 6.959922983894733 6.617213285363864 -3 -3 0
3075 749 2 0.5564 -0.4075422984992002 4.231688942207386 1.1839444276346724 -1 0 0
3644 939 1 -1.1128 4.652324679805389 2.236184994400252 5.338854218309485 -1 2 0
3261 811 2 0.5564 -0.47598507042794297 5.0690958591243955 7.057784454844131 2 2 0
2103 425 2 0.5564 1.0283364073091124 1.8087668427480086 0.1744811109825816 1 -3 0
485 2 4 0 9.82419 4.254 16.74620659931785 0 0 0
3335 836 1 -1.1128 6.265359388941455 5.386840304612493 2.4929897629054283 1 2 0
3337 836 2 0.5564 6.245065254256109 5.670453192154194 1.578994950054847 1 2 0
3379 850 2 0.5564 7.579283832250442 5.054973005083153 3.686289713139437 -2 -4 0
1199 124 1 -1.1128 1.4395303302176496 5.806106814410281 3.2344457082995333 2 3 0
1783 318 2 0.5564 13.764464540962495 0.45513949238157214 13.604597535791639 3 -2 0
1769 314 1 -1.1128 1.7935419306332303 2.2504009043794753 7.190561008030214 2 -1 0
3646 939 2 0.5564 4.855969311408268 1.4146204101043052 4.8918717929442534 -1 2 0
2973 715 2 0.5564 1.2320291037801414 1.748542690684385 5.635958720014823 0 2 0
1770 314 2 0.5564 1.1516350305037306 2.01508673531551 7.860499453823347 2 -1 0
1200 124 2 0.5564 0.7236924813392597 5.539925797543845 2.657414473989653 2 3 0
429 2 4 0 7.36814 0 16.74620659931785 0 0 0
3513 895 2 0.5564 6.804757967675964 -0.7019378412713655 4.382318623310417 1 -3 0
1516 229 2 0.5564 2.9097570299494038 4.683162896006215 3.2032039020532523 1 1 0
3609 927 2 0.5564 2.8155765061148768 7.796087879140967 7.777268013608946 2 0 0
2972 715 1 -1.1128 0.7127323917254211 1.6844632974257574 4.834424336630695 0 2 0
3262 811 2 0.5564 -1.5872007115546225 5.040146127915025 8.085529655495579 2 2 0
2761 644 2 0.5564 10.960762814126285 -0.3784920448614897 13.00086467157654 -1 -1 0
984 52 2 0.5564 13.297108837860472 0.8742026617460439 11.347664088075321 1 3 0
3260 811 1 -1.1128 -1.000317489073901 4.469829146949305 7.588997863347363 2 2 0
487 2 4 0 8.59617 6.381 16.74620659931785 0 0 0
2053 408 2 0.5564 8.92026639543576 1.0502114595242455 0.8293985515541529 0 -1 0
3007 726 2 0.5564 13.998537079971106 5.783133743021404 9.911079531202091 -3 2 0
2357 510 1 -1.1128 14.043725371799818 6.447366629207121 2.0406939724916753 3 4 0
3370 847 2 0.5564 5.129790916784516 0.3505253903615484 12.79827962261639 1 0 0
999 57 2 0.5564 6.320950968910906 3.363896125960352 5.783059783620809 -5 2 0
3512 895 1 -1.1128 5.885042276164643 -0.47256280099016207 4.515518287921167 1 -3 0
3036 736 2 0.5564 9.118507094017946 0.09251064297274889 5.569369614452756 4 1 0
1581 251 2 0.5564 12.030071891301008 4.965285265087366 13.201668881424606 1 -7 0
439 2 4 0 11.0522 2.127 16.74620659931785 0 0 0
2513 562 1 -1.1128 11.899249484265193 5.996008918548263 0.46035728470449505 -1 -2 0
2809 660 2 0.5564 6.209392504493701 1.5703439734560256 1.799731258372901 1 1 0
1000 57 2 0.5564 7.571850361847151 4.215969279404052 5.749613275525824 -5 2 0
1837 336 2 0.5564 10.92405054312601 4.184618430403548 3.6040421715513 -3 -5 0
998 57 1 -1.1128 7.108759631413931 3.571952184159325 6.2853574554593985 -5 2 0
940 37 2 0.5564 12.162812486649461 3.3506248783033596 6.324498429901014 0 -1 0
2721 631 2 0.5564 4.751236530647012 7.360202155873816 11.712428879263097 -3 -2 0
3655 942 2 0.5564 8.601787373128694 2.3196266263656127 6.197858307102387 -3 0 0
3653 942 1 -1.1128 9.49084655652812 1.9759246478534094 6.28549069710572 -3 0 0
939 37 2 0.5564 11.579531968589574 4.402563079306618 5.405202229351327 0 -1 0
3671 948 1 -1.1128 11.513443440280716 1.2840231456881086 1.6062867032967518 -4 0 0
3672 948 2 0.5564 10.714273262085428 1.4863729240527024 2.0927189451989037 -4 0 0
3654 942 2 0.5564 10.053681161585356 2.747692426214514 6.223618042015721 -3 0 0
2994 722 2 0.5564 8.496114323267392 2.7145722448003267 2.5945106690843556 -1 0 0
3673 948 2 0.5564 11.486784278035188 0.33490358756275346 1.485064241674478 -4 0 0
3377 850 1 -1.1128 8.290767394538273 5.127798181206839 4.322465772567853 -2 -4 0
3378 850 2 0.5564 8.775614205780798 5.907561984626132 4.0520507182476955 -2 -4 0
2993 722 1 -1.1128 9.398213731429221 2.5974575720987674 2.892399700859672 -1 0 0
1836 336 2 0.5564 12.386630953051801 3.796970978436219 3.554179129969248 -3 -5 0
2995 722 2 0.5564 9.318205617436083 2.384923165833271 3.82227118575165 -1 0 0
938 37 1 -1.1128 11.448494873675655 3.9841058826900984 6.256057912187185 0 -1 0
3067 746 2 0.5564 11.025338659245751 6.334711043924404 8.436104359764835 1 2 0
3066 746 2 0.5564 11.427902440228767 5.375906384767534 7.335862399359599 1 2 0
1582 251 2 0.5564 11.737084442263802 6.334271640752027 12.625533383577878 1 -7 0
1835 336 1 -1.1128 11.80630956695254 4.546530704899278 3.686941182116545 -3 -5 0
3065 746 1 -1.1128 11.636276885947641 6.233616075477275 7.706195556671126 1 2 0
3146 773 1 -1.1128 -1.593185934942239 2.8509328070983484 5.369744264374778 2 0 0
3005 726 1 -1.1128 13.888188514146506 4.936354150427084 10.343537301949128 -3 2 0
2808 660 2 0.5564 6.288089498955785 3.0564451308030254 1.5218716806138006 1 1 0
2807 660 1 -1.1128 6.544922306541091 2.3911027304441648 2.160299014486245 1 1 0
434 2 4 0 8.59617 0.709 16.74620659931785 0 0 0
1132 101 2 0.5564 10.205637419586308 6.683917718794135 2.5421828936920683 0 -3 0
495 2 4 0 13.5083 6.381 16.74620659931785 0 0 0
3499 890 2 0.5564 1.8773584189072847 7.279416216933804 2.445458642767979 -1 2 0
1411 194 2 0.5564 12.838859215233743 3.4471089607997794 0.003793924310190636 1 -1 0
1735 302 2 0.5564 13.274091712586452 7.034555156040775 8.106291665301418 3 3 0
1130 101 1 -1.1128 9.640320372919037 7.129598169099182 3.173069683616079 0 -3 0
3822 998 2 0.5564 13.262746727131258 5.264707710100727 6.277228072224079 -2 3 0
2359 510 2 0.5564 13.23448584507423 6.47935206963809 1.5304523912314867 3 4 0
995 56 1 -1.1128 13.595671378455956 2.3636351742592985 3.7086901427995698 5 -2 0
1885 352 2 0.5564 13.276073488380087 0.321526678253412 6.291449068398594 -4 3 0
3739 970 2 0.5564 2.9115637299964052 -0.32539178972285254 8.484649060215968 1 -1 0
2116 429 2 0.5564 -0.4354311331638632 2.9618151348784867 8.502392505432615 -4 1 0
486 2 4 0 8.59617 4.963 16.74620659931785 0 0 0
2102 425 1 -1.1128 0.7177343252369949 2.6195754552981003 0.5774059729690441 1 -3 0
442 2 4 0 13.5083 0.709 16.74620659931785 0 0 0
3368 847 1 -1.1128 4.492500368323766 0.10651458595126978 13.469511275765504 1 0 0
3369 847 2 0.5564 4.702843260764696 0.6680770608213631 14.215591359887203 1 0 0
2720 631 1 -1.1128 5.38613587789655 7.455101748016265 11.002406731601086 -3 -2 0
1622 265 1 -1.1128 12.272672314897177 7.476607084691263 4.221134644697256 0 3 0
2015 396 1 -1.1128 5.601761854590038 0.24907715156636728 0.43950659849965995 3 1 0
3610 927 2 0.5564 2.25072299821517 6.410701159441861 7.545877836451693 2 0 0
1944 372 2 0.5564 3.0773774078049825 1.611593869764529 11.160416582662075 2 2 0
1218 130 2 0.5564 -1.4091313176142286 0.4570038047231504 13.453826655876592 -1 2 0
491 2 4 0 11.0522 6.381 16.74620659931785 0 0 0
3608 927 1 -1.1128 2.0534821325071815 7.248250620488538 7.965210001370974 2 0 0
1432 201 2 0.5564 6.3810137100614455 -0.3019792732843351 11.076543332055365 -2 1 0
1945 372 2 0.5564 3.5131763982246813 0.5238499659558783 12.118951743158028 2 2 0
2565 579 2 0.5564 0.42000725214181844 4.493144445858025 13.77279090559729 0 2 0
1431 201 2 0.5564 6.553059275607148 1.1586970154235423 10.71776594750177 -2 1 0
2878 683 2 0.5564 7.420236018975032 6.128291142598155 7.782506982187726 1 3 0
1771 314 2 0.5564 2.6366673958083378 1.9977345259982109 7.5667705984766345 2 -1 0
3586 919 2 0.5564 0.6724701609929744 3.5791144743620844 11.638658113613939 3 -4 0
3584 919 1 -1.1128 0.988190277520121 3.9266551293169103 10.80453070140585 3 -4 0
2876 683 1 -1.1128 6.949262373308593 5.4270371269655175 8.232685134720809 1 3 0
1443 205 2 0.5564 3.7317564769751734 3.4538306686040463 12.759727870582953 -3 3 0
2566 579 2 0.5564 -0.4781857747620221 3.287970342189355 13.953623454324005 0 2 0
2115 429 2 0.5564 -1.008943025111589 2.267313621386439 9.719211151029608 -4 1 0
1442 205 1 -1.1128 3.751574330106571 3.7081849233925697 13.68230230045377 -3 3 0
2160 444 2 0.5564 -1.313143132118656 5.896383675558198 12.62636024569067 5 -2 0
2299 490 2 0.5564 4.114495647276418 4.177753377764972 10.289486876569471 0 1 0
2298 490 2 0.5564 2.8173462695954887 3.543885155588323 10.745021246330401 0 1 0
2297 490 1 -1.1128 3.7587907326538033 3.3817887400472406 10.68464219975927 0 1 0
1430 201 1 -1.1128 6.484892228796953 0.5660626868795402 11.46634501441535 -2 1 0
2073 415 2 0.5564 3.7596405807305837 6.35393402266204 13.759537308917313 3 0 0
2074 415 2 0.5564 2.7812569296176632 7.200769713696674 12.973705467355577 3 0 0
2072 415 1 -1.1128 3.6951902852033296 6.916589201484287 12.987852467030063 3 0 0
1331 168 1 -1.1128 -0.5177225968262691 6.06508589276385 10.75407001211585 4 -1 0
1332 168 2 0.5564 -0.03043219223376068 5.266629354558843 10.550959195846017 4 -1 0
1333 168 2 0.5564 0.04050751166776325 6.774466113053037 10.435645226941245 4 -1 0
2159 444 1 -1.1128 -1.6754633717549459 5.773875901331967 13.503828450246019 5 -2 0
3624 932 2 0.5564 -0.024287709646561757 0.20683414059903443 5.618843500196967 2 1 0
1444 205 2 0.5564 2.8501057549605506 3.5923679126959795 13.982591414549184 -3 3 0
3585 919 2 0.5564 0.5946642331015207 3.357578001640394 10.143076762113225 3 -4 0
2877 683 2 0.5564 7.080968419842907 4.656433483705744 7.680363050106064 1 3 0
489 2 4 0 12.2802 4.254 16.74620659931785 0 0 0
2564 579 1 -1.1128 0.34307619526361377 3.565895655719076 13.548014279461906 0 2 0
1943 372 1 -1.1128 2.7521446092409887 0.8480376912404108 11.63732185641207 2 2 0
3709 960 2 0.5564 5.827793132291369 4.546875925336058 13.870492310314301 2 0 0
1883 352 1 -1.1128 12.79337902712083 0.3868583232033374 5.467452269421602 -4 3 0
3162 778 2 0.5564 7.478864321247895 6.888000907516754 13.38985267912784 1 -2 0
3623 932 1 -1.1128 -0.025638677383671288 -0.6229614428503963 6.095992486327146 2 1 0
1884 352 2 0.5564 13.239196646261679 1.0813926200564048 4.982579108745139 -4 3 0
2114 429 1 -1.1128 -0.24388379484480105 2.2778466572605076 9.144053843597256 -4 1 0
3659 944 1 -1.1128 0.13083031572447765 0.10062125931958264 12.164815525686933 5 2 0
1410 194 2 0.5564 11.709071694942708 2.5273795074251098 0.4155872358537019 1 -1 0
494 2 4 0 13.5083 4.963 16.74620659931785 0 0 0
3076 749 2 0.5564 -1.0000871189988354 5.56059253186583 0.7658475653422314 -1 0 0
3823 998 2 0.5564 13.412776142186054 5.088658976983897 4.781101855251039 -2 3 0
3159 777 2 0.5564 8.609118383124402 0.6583691828012143 11.710013723623105 -2 0 0
3158 777 1 -1.1128 9.540509151322565 0.8151325631201684 11.554536986514249 -2 0 0
1623 265 2 0.5564 12.653034781969335 6.993036984184938 3.4878427948681536 0 3 0
490 2 4 0 11.0522 4.963 16.74620659931785 0 0 0
1287 153 2 0.5564 9.035127390401412 5.18277890595205 10.14535053368343 -1 -4 0
433 2 4 0 9.82419 0 16.74620659931785 0 0 0
2430 534 2 0.5564 6.901545780161531 3.122350105196054 10.154737342461617 2 0 0
2429 534 1 -1.1128 6.757099606734682 2.3731621070206605 9.576736319783421 2 0 0