LAMMPS data file via write_data, version 2 Aug 2023, timestep = 6750000, units = real

5032 atoms
4 atom types
2800 bonds
1 bond types
1400 angles
1 angle types
0 impropers
1 improper types

-1.8420299999999998 30.08661 xlo xhi
-0.709 33.323 ylo yhi
-150 150 zlo zhi

Masses

1 15.9994
2 1.00794
3 12.0107
4 12.0107

Pair Coeffs # lj/cut/tip4p/long

1 0.1852 3.1589
2 0 0
3 0.0859 3.3997
4 0.0859 3.3997

Bond Coeffs # harmonic

1 5000 0.9572

Angle Coeffs # harmonic

1 500 104.52

Atoms # full

1 1 3 0 0 0 -19.086524130372066 0 0 0
2 1 3 0 -1.22802 0.709 -19.086524130372066 0 0 0
3 1 3 0 -1.22802 2.127 -19.086524130372066 0 0 0
4 1 3 0 0 2.836 -19.086524130372066 0 0 0
5 1 3 0 2.45605 0 -19.086524130372066 0 0 0
6 1 3 0 1.22802 0.709 -19.086524130372066 0 0 0
7 1 3 0 1.22802 2.127 -19.086524130372066 0 0 0
8 1 3 0 2.45605 2.836 -19.086524130372066 0 0 0
9 1 3 0 4.9121 0 -19.086524130372066 0 0 0
10 1 3 0 3.68407 0.709 -19.086524130372066 0 0 0
11 1 3 0 3.68407 2.127 -19.086524130372066 0 0 0
12 1 3 0 4.9121 2.836 -19.086524130372066 0 0 0
14 1 3 0 6.14012 0.709 -19.086524130372066 0 0 0
15 1 3 0 6.14012 2.127 -19.086524130372066 0 0 0
53 1 3 0 0 4.254 -19.086524130372066 0 0 0
54 1 3 0 -1.22802 4.963 -19.086524130372066 0 0 0
55 1 3 0 -1.22802 6.381 -19.086524130372066 0 0 0
56 1 3 0 0 7.09 -19.086524130372066 0 0 0
57 1 3 0 2.45605 4.254 -19.086524130372066 0 0 0
58 1 3 0 1.22802 4.963 -19.086524130372066 0 0 0
59 1 3 0 1.22802 6.381 -19.086524130372066 0 0 0
60 1 3 0 2.45605 7.09 -19.086524130372066 0 0 0
61 1 3 0 4.9121 4.254 -19.086524130372066 0 0 0
62 1 3 0 3.68407 4.963 -19.086524130372066 0 0 0
63 1 3 0 3.68407 6.381 -19.086524130372066 0 0 0
64 1 3 0 4.9121 7.09 -19.086524130372066 0 0 0
66 1 3 0 6.14012 4.963 -19.086524130372066 0 0 0
67 1 3 0 6.14012 6.381 -19.086524130372066 0 0 0
1098 90 2 0.5564 0.8145228995289375 5.480333428212487 -15.89096251222504 -1 -2 0
1097 90 1 -1.1128 0.5028701198766927 6.374281690575536 -15.749680863592845 -1 -2 0
3440 871 1 -1.1128 1.1063077403828958 3.5281045121060495 -16.014091760929645 2 3 0
3442 871 2 0.5564 1.9456703539277083 3.186683778300835 -16.322530449299137 2 3 0
2736 636 2 0.5564 5.418687927626822 4.535886503784389 -15.637156804980924 -3 -2 0
1099 90 2 0.5564 -0.43397030150236776 6.335051874895249 -15.942094102197377 -1 -2 0
1279 150 2 0.5564 2.4289095387788393 6.5456671683645835 -14.642910776532856 -3 0 0
3419 864 1 -1.1128 3.6631650626518963 2.072662595608313 -15.865721883422903 4 2 0
3421 864 2 0.5564 4.601216857584575 1.914870646300834 -15.972469038476385 4 2 0
4033 1068 2 0.5564 -1.0210958945370427 3.2112901402970504 -0.42560360824557913 2 -1 0
3420 864 2 0.5564 3.3131825946782527 1.2376781757531972 -15.555001921691527 4 2 0
2255 476 1 -1.1128 6.1462139490367464 0.5185807777962081 -3.7966098697846458 5 -1 0
4212 1128 2 0.5564 10.0043642650806 5.501364627751496 -0.9777704546667504 1 2 0
13 1 3 0 7.36814 0 -19.086524130372066 0 0 0
16 1 3 0 7.36814 2.836 -19.086524130372066 0 0 0
17 1 3 0 9.82419 0 -19.086524130372066 0 0 0
18 1 3 0 8.59617 0.709 -19.086524130372066 0 0 0
19 1 3 0 8.59617 2.127 -19.086524130372066 0 0 0
20 1 3 0 9.82419 2.836 -19.086524130372066 0 0 0
21 1 3 0 12.2802 0 -19.086524130372066 0 0 0
22 1 3 0 11.0522 0.709 -19.086524130372066 0 0 0
23 1 3 0 11.0522 2.127 -19.086524130372066 0 0 0
24 1 3 0 12.2802 2.836 -19.086524130372066 0 0 0
26 1 3 0 13.5083 0.709 -19.086524130372066 0 0 0
27 1 3 0 13.5083 2.127 -19.086524130372066 0 0 0
65 1 3 0 7.36814 4.254 -19.086524130372066 0 0 0
68 1 3 0 7.36814 7.09 -19.086524130372066 0 0 0
69 1 3 0 9.82419 4.254 -19.086524130372066 0 0 0
70 1 3 0 8.59617 4.963 -19.086524130372066 0 0 0
71 1 3 0 8.59617 6.381 -19.086524130372066 0 0 0
72 1 3 0 9.82419 7.09 -19.086524130372066 0 0 0
73 1 3 0 12.2802 4.254 -19.086524130372066 0 0 0
74 1 3 0 11.0522 4.963 -19.086524130372066 0 0 0
75 1 3 0 11.0522 6.381 -19.086524130372066 0 0 0
76 1 3 0 12.2802 7.09 -19.086524130372066 0 0 0
78 1 3 0 13.5083 4.963 -19.086524130372066 0 0 0
79 1 3 0 13.5083 6.381 -19.086524130372066 0 0 0
3713 962 1 -1.1128 6.433670305222656 1.7500478174897673 -16.193912607029503 -1 1 0
3714 962 2 0.5564 6.744467772295022 0.8514300032980373 -16.304039617541054 -1 1 0
4391 1188 1 -1.1128 11.72989423766035 6.2695615952169526 -12.123014473683655 -5 3 0
2420 531 1 -1.1128 7.049459216458037 4.609775612597988 -16.020060261530215 1 2 0
2422 531 2 0.5564 7.019484006944901 3.7345129083824675 -16.40638723082236 1 2 0
4434 1202 2 0.5564 0.4865305615074157 7.157513848131474 -12.42248281815874 -1 4 0
5007 1393 2 0.5564 6.586415755391853 6.567591278181368 -16.09254364135861 -2 -1 0
1274 149 1 -1.1128 12.721242315164684 4.350379881595776 -4.098480609992816 3 2 0
2421 531 2 0.5564 7.891800017249113 4.643257276485647 -15.566658991570398 1 2 0
871 14 2 0.5564 12.91891596201896 4.020592359221271 -14.874689800098137 0 1 0
5006 1393 1 -1.1128 6.507598383503297 7.431519398961411 -15.688008688984732 -2 -1 0
4891 1354 2 0.5564 11.243509540222693 0.8175250428611801 -4.69944739574839 5 1 0
2735 636 1 -1.1128 4.57814638069806 4.500550191815122 -15.18056286743975 -3 -2 0
2737 636 2 0.5564 4.213250350894804 3.6473093275625725 -15.41522472742185 -3 -2 0
1278 150 2 0.5564 3.879581700721357 6.134525367064427 -14.778583107787886 -3 0 0
3441 871 2 0.5564 0.6013232444656167 2.749023617940746 -15.78116283467109 2 3 0
1277 150 1 -1.1128 3.32005526891029 6.841275815133262 -14.456613748684106 -3 0 0
4503 1225 2 0.5564 2.520593982608992 -0.06892245172644604 -13.936398397336047 4 4 0
2245 472 2 0.5564 5.034548383468031 0.13326049176436355 -11.089062559110562 1 2 0
4635 1269 2 0.5564 1.0721201190496643 5.660977002678564 -7.450624406085996 3 2 0
2363 512 1 -1.1128 1.1115360765091198 3.5929276967647357 -12.270867222084503 0 0 0
2364 512 2 0.5564 2.0572002485233156 3.4833539553312316 -12.37058873033842 0 0 0
2365 512 2 0.5564 0.9581381977427271 4.521977448408051 -12.442825341749344 0 0 0
3512 895 1 -1.1128 3.149463972756799 7.470893320956814 -9.946422750048294 3 -3 0
4936 1369 2 0.5564 4.277124675239123 4.134578976665371 -11.147111732220223 -2 -1 0
4934 1369 1 -1.1128 3.913935732372176 3.2602993107531333 -11.288400437395019 -2 -1 0
4935 1369 2 0.5564 4.659210611057113 2.669997608573963 -11.177302786908795 -2 -1 0
4564 1245 2 0.5564 0.14737710486389433 2.2388988116305515 -13.59799633241356 4 3 0
3499 890 2 0.5564 0.43986543985809357 2.8955441003519 -10.599264365709349 1 1 0
4562 1245 1 -1.1128 -0.2505195703080712 1.6182782161238167 -14.208521846109356 4 3 0
4563 1245 2 0.5564 -1.1688287975699718 1.5746948815770898 -13.941987763392737 4 3 0
1022 65 1 -1.1128 5.133225611152412 5.780006452721284 -10.737117484707044 4 1 0
4504 1225 2 0.5564 1.2218065874983117 0.5412226120749781 -14.418863365486757 4 4 0
4435 1202 2 0.5564 0.412541794503955 6.20632393778759 -13.597921581860254 -1 4 0
4502 1225 1 -1.1128 2.061537161901079 0.20389875893157833 -14.730796086536138 4 4 0
4433 1202 1 -1.1128 0.36095874408770867 6.234450814467781 -12.642525833633226 -1 4 0
1024 65 2 0.5564 4.332504457537236 6.241816875654778 -10.48849486472296 4 1 0
2447 540 1 -1.1128 -1.4400987650251897 -0.3700677147674274 -2.041485502416867 1 -2 0
3497 890 1 -1.1128 0.2509251794261753 2.6973982094610713 -9.682054463643711 1 1 0
3498 890 2 0.5564 -0.4783298779908722 2.0782898100705545 -9.71557404102726 1 1 0
4634 1269 1 -1.1128 0.8427304183416351 6.500218424951826 -7.849730895684269 3 2 0
2832 668 2 0.5564 11.420498835540844 0.5551608721314637 -7.239727837919738 0 1 0
1023 65 2 0.5564 5.353099797657444 6.128868652145795 -11.600936340630739 4 1 0
3108 760 2 0.5564 5.51678919030692 4.274478530191819 -9.012187090635289 -2 -4 0
2244 472 2 0.5564 5.761973956334403 1.0425984469203995 -10.121667409240233 1 2 0
2297 490 1 -1.1128 6.484334376274003 6.793380874720578 -0.13550688658948817 -3 1 0
2788 653 2 0.5564 7.507494138304052 6.6657576080082315 -12.37993765245065 2 -2 0
2443 538 2 0.5564 1.559549715613258 3.2695605366463076 -5.810515300698079 -2 -4 0
3773 982 1 -1.1128 2.808288538663511 2.6809490894756647 -8.80185311749093 2 1 0
3774 982 2 0.5564 1.8525251495108628 2.7326623268883767 -8.810719389561992 2 1 0
3775 982 2 0.5564 3.0743619099981703 3.0092377891885644 -9.660727736119966 2 1 0
4439 1204 1 -1.1128 -1.2283796984672555 4.347183832286506 -5.170246814688618 2 -3 0
4636 1269 2 0.5564 1.0157102929741355 7.146683921185879 -7.1653386109263355 3 2 0
3107 760 1 -1.1128 5.807135068178991 4.381863399709155 -8.106428060977954 -2 -4 0
2243 472 1 -1.1128 5.372323878227811 1.0240113322374782 -10.995773682415917 1 2 0
3514 895 2 0.5564 2.447554462166449 7.235696758115499 -9.339596639292072 3 -3 0
896 23 1 -1.1128 13.789978180699595 2.0399101060265514 -13.050089685334521 1 -4 0
2444 539 1 -1.1128 11.86221821513466 -0.3883208764303901 -11.519950515960014 1 6 0
1540 237 2 0.5564 2.8721887586223787 -0.5740339339322634 -8.33307856170498 0 -2 0
4102 1091 2 0.5564 10.49434046408777 7.043882878101602 -9.362455585206963 0 -2 0
3715 962 2 0.5564 6.384596864263841 1.8725168280756332 -15.245847182886777 -1 1 0
1903 358 2 0.5564 6.242166756005956 0.5990999639997834 -7.644898309720748 -3 2 0
2786 653 1 -1.1128 6.744645694428827 7.219283650921237 -12.546981122089479 2 -2 0
2787 653 2 0.5564 6.686389876210732 7.266018307752978 -13.501263267350382 2 -2 0
3504 892 2 0.5564 5.84046427142683 2.481004052673583 -13.20120768280726 3 -2 0
4584 1252 2 0.5564 10.233337577961846 0.9432710731780354 -2.386452500852507 -1 -2 0
3505 892 2 0.5564 6.522490277009289 3.676083807862158 -13.832490494504713 3 -2 0
3503 892 1 -1.1128 6.663002328286489 2.7568245437570074 -13.605665039006402 3 -2 0
1539 237 2 0.5564 2.900104935301785 0.4977972873261982 -9.401860032716025 0 -2 0
1901 358 1 -1.1128 6.318052729268783 1.3185559104441973 -8.271681173023234 -3 2 0
2091 421 2 0.5564 -1.5475331152128866 3.589093362199446 -9.47191147287506 1 2 0
1902 358 2 0.5564 6.940740244980143 1.9234531955330099 -7.868454837329573 -3 2 0
3130 767 2 0.5564 9.962889742238236 2.4678336581729567 -7.352308067958523 4 0 0
3361 844 2 0.5564 10.223049752695971 3.9848831366463795 -14.572923642446451 1 2 0
3128 767 1 -1.1128 9.31181986121648 1.7664459562363268 -7.372183981867606 4 0 0
3129 767 2 0.5564 9.397254222201587 1.3843787764630666 -8.245658471843578 4 0 0
3273 815 2 0.5564 9.597271459047482 4.501670176476748 -10.783830231456568 -3 -1 0
3360 844 2 0.5564 10.081815722348871 5.485510302815059 -14.714577296287443 1 2 0
3893 1022 1 -1.1128 9.088757435905652 5.455096296085079 -12.104570257204418 2 0 0
3359 844 1 -1.1128 9.575361910046265 4.673321894995006 -14.723869166230452 1 2 0
4356 1176 2 0.5564 8.768641760457234 0.565650609465352 -13.121873038285074 1 0 0
2526 566 2 0.5564 2.915364407893267 5.691757728388485 -4.5500027486575885 1 2 0
1275 149 2 0.5564 12.709117887137815 5.273286414135942 -3.844847112079364 3 2 0
4183 1118 2 0.5564 10.808659190362752 7.073849719516433 -13.758745670956625 -1 1 0
4366 1179 2 0.5564 12.441255584638304 2.3378053059723394 -11.097101376111489 -1 -2 0
4364 1179 1 -1.1128 12.244726699496955 2.6206097643750517 -10.203999769196363 -1 -2 0
4365 1179 2 0.5564 11.872859812913514 1.8454651858434414 -9.783167120177383 -1 -2 0
3272 815 1 -1.1128 9.974265108313793 4.1916712204088675 -9.96041474051653 -3 -1 0
3894 1022 2 0.5564 10.022133950223163 5.643819046230849 -12.201641612137104 2 0 0
1831 334 2 0.5564 10.814737644330638 2.234585777097486 -13.902246944749395 4 -3 0
3895 1022 2 0.5564 8.893309003068044 4.840644643530577 -12.812017043009288 2 0 0
4357 1176 2 0.5564 8.218281810726223 1.9737591299888522 -13.042961746858142 1 0 0
4355 1176 1 -1.1128 9.023920122138666 1.484102266987792 -13.208533888273685 1 0 0
1829 334 1 -1.1128 11.479025685713285 2.8783883281191236 -14.148160527929953 4 -3 0
4335 1169 2 0.5564 9.330239225493939 0.33985677435684203 -10.063717878757043 0 2 0
4101 1091 2 0.5564 10.714129892912329 5.558038639909987 -9.551801054331367 0 -2 0
3274 815 2 0.5564 10.550386788051513 3.4713929944583066 -10.216376236910127 -3 -1 0
3980 1051 1 -1.1128 12.649200229412925 2.748192078737722 -1.8528373676558338 2 0 0
4336 1169 2 0.5564 9.326053198991012 1.4457343100951399 -11.0975991525993 0 2 0
1830 334 2 0.5564 12.274796026860416 2.583130282448323 -13.70565667584777 4 -3 0
3525 899 2 0.5564 13.988002051585866 -0.01515908408088014 -0.15105802001845303 -5 -2 0
4211 1128 1 -1.1128 10.698987533106113 5.768071454697961 -0.3756087898569471 1 2 0
4334 1169 1 -1.1128 9.768658493061594 1.1574813555458516 -10.299325080710164 0 2 0
4100 1091 1 -1.1128 11.178048843807389 6.373978830146426 -9.364041378062225 0 -2 0
4393 1188 2 0.5564 11.530781050318957 6.328795105089225 -11.188628120781505 -5 3 0
3981 1051 2 0.5564 12.778887236812256 3.400269409216229 -2.5414665098888833 2 0 0
2078 417 1 -1.1128 5.4990814473581535 5.992660256103596 -3.561283424245939 4 -2 0
2080 417 2 0.5564 6.188903087701186 6.60038039232192 -3.827843091935708 4 -2 0
1881 351 2 0.5564 7.414871907690859 -0.4572868051934539 -0.4079626816979476 -2 -1 0
4441 1204 2 0.5564 -1.6588943597583936 4.934639429153179 -5.791366429191574 2 -3 0
4440 1204 2 0.5564 -1.5387596464403617 3.474263199896554 -5.410886704655378 2 -3 0
2525 566 1 -1.1128 3.3975045359229337 5.734166358257329 -5.375820044275736 1 2 0
4493 1222 1 -1.1128 6.459746953552081 3.532049473454864 -3.1669544285026423 -2 2 0
4213 1128 2 0.5564 10.425625512279016 6.629530555512373 -0.06034082512353249 1 2 0
1205 126 1 -1.1128 6.823405780291836 3.236567753669001 -5.808239286966106 1 3 0
2445 539 2 0.5564 11.10216201591859 0.18347173603955827 -11.412237832222209 1 6 0
3109 760 2 0.5564 6.314118337134899 5.193758352117002 -8.111584375532829 -2 -4 0
1637 270 1 -1.1128 12.808875344946108 7.091612337874825 -2.9408161498480885 -2 2 0
2527 566 2 0.5564 3.1447095769552122 4.937579688826783 -5.842485144598454 1 2 0
1602 258 2 0.5564 8.985967898986008 0.703995969101627 -5.822540786196005 -2 0 0
4494 1222 2 0.5564 6.063366750035928 4.399712326358772 -3.087732902469788 -2 2 0
4734 1302 2 0.5564 8.327398044812382 7.746804008869857 -4.416771080954623 -6 0 0
2304 492 2 0.5564 -1.3710460621309857 0.30809710907843785 -9.85857406998725 -1 4 0
4811 1328 1 -1.1128 -1.334298263918968 0.21690217348694785 -6.311795150527379 2 0 0
4127 1100 1 -1.1128 -0.5878458738804301 5.170007122846014 -2.7487792940065763 2 -1 0
2550 574 2 0.5564 2.3228006011257225 1.1747353955958202 -2.8022413202865195 -2 4 0
2449 540 2 0.5564 -1.0963780573266264 0.26902049967438707 -2.6657088528259685 1 -2 0
2793 655 2 0.5564 7.6195707510492365 7.673293381366553 -1.7421159981493852 3 0 0
4582 1251 2 0.5564 2.686418035624252 3.876551354128214 -3.2447305078061444 1 2 0
1490 221 1 -1.1128 3.8238867543646826 2.4249280216695968 -3.553441096043152 1 -3 0
2442 538 2 0.5564 0.40340477872198477 4.246374773189018 -5.777968270792983 -2 -4 0
2441 538 1 -1.1128 1.3276386875389419 4.175087498577809 -6.01659905499063 -2 -4 0
1873 348 2 0.5564 0.3818583094151136 1.1578274749798392 -3.4396753249870087 0 -3 0
1872 348 2 0.5564 -0.42450771070206644 1.300380344811123 -4.712995443418681 0 -3 0
4128 1100 2 0.5564 -0.8937319570794122 6.0770035801479665 -2.753554453311849 2 -1 0
2471 548 1 -1.1128 2.6971900181770057 1.617828440533672 -6.053590840333403 -1 0 0
2473 548 2 0.5564 2.7805732660569387 2.04808148325487 -6.9045675179816755 -1 0 0
2472 548 2 0.5564 2.939891038863897 0.7070497260061761 -6.220355494730626 -1 0 0
2256 476 2 0.5564 5.987524234234878 -0.3764330367908063 -3.496608959256862 5 -1 0
4580 1251 1 -1.1128 2.327204306326453 4.735410409143108 -3.0221052929547985 1 2 0
1871 348 1 -1.1128 -0.41968297297280355 1.5479213420567477 -3.7883707216271216 0 -3 0
4581 1251 2 0.5564 1.3789869745861945 4.604724543694296 -3.0160660694769796 1 2 0
1491 221 2 0.5564 3.836646928001265 2.021165915684758 -4.421224250472348 1 -3 0
1492 221 2 0.5564 4.746615794192961 2.5006885761372413 -3.3104090303037768 1 -3 0
1538 237 1 -1.1128 2.528634800006953 -0.36115952404491575 -9.200770586569101 0 -2 0
4129 1100 2 0.5564 -0.7529754061452593 4.856364845494425 -3.637932136965023 2 -1 0
4911 1361 2 0.5564 12.316872432842635 0.44755826400275667 -14.34796647899457 1 3 0
889 20 2 0.5564 3.6269963812307373 5.282893214231399 -1.9019684367341316 1 0 0
4032 1068 2 0.5564 -1.3600190539601231 4.263896177805824 -1.4595508357694063 2 -1 0
2551 574 2 0.5564 2.313357623200091 -0.32039428424324706 -3.0397133846966393 -2 4 0
2257 476 2 0.5564 6.154409362825767 1.0423291299469912 -2.9954517000402863 5 -1 0
4181 1118 1 -1.1128 10.575467975043598 7.078217852913075 -14.687096481295395 -1 1 0
2347 506 2 0.5564 4.291591020899428 7.459538807134884 -6.182991764138334 3 -1 0
2119 430 2 0.5564 4.79629905671161 3.9968659024098696 -0.4131049787869858 -1 -1 0
3584 919 1 -1.1128 -1.6529186810156447 4.227795505047543 -13.523609167975941 -1 -1 0
888 20 2 0.5564 5.049647177535894 5.738337255232362 -1.6559353952959361 1 0 0
4031 1068 1 -1.1128 -1.7401107305745094 3.759030156527464 -0.7406120311150531 2 -1 0
2417 530 1 -1.1128 9.115302935391231 4.972172865876767 -4.991043485244774 -1 -2 0
1713 295 2 0.5564 1.2736158597134943 1.2035264801665104 -0.7835712633915474 -1 1 0
1295 156 1 -1.1128 10.453425251183743 -0.4598378273058244 -3.5947304769788024 0 -1 0
4812 1328 2 0.5564 -0.7746860087486513 -0.07169960989237552 -7.032750476351255 2 0 0
2549 574 1 -1.1128 1.8060265163926297 0.38566697920304577 -2.6393074938523444 -2 4 0
1603 258 2 0.5564 7.776064037125412 0.6045960195451469 -4.918022688595804 -2 0 0
4392 1188 2 0.5564 12.654020389583634 6.022343882580315 -12.156261496114753 -5 3 0
4890 1354 2 0.5564 11.417257946903897 2.181532855682905 -5.332843986613891 5 1 0
887 20 1 -1.1128 4.247514230678213 5.48198019136947 -1.2008572313012524 1 0 0
3984 1052 2 0.5564 7.134969643000033 1.6953110959549813 -0.722463646819192 -3 1 0
2792 655 1 -1.1128 7.923235109565782 7.7704214369088636 -2.6446601197398296 3 0 0
4729 1300 2 0.5564 11.966210704471678 7.224561927934926 -7.730374236465987 -4 4 0
1207 126 2 0.5564 6.2914217083557755 3.731633510357324 -6.431246539979704 1 3 0
3190 787 2 0.5564 7.681450287768151 6.928145667946149 -7.2571778819423445 3 1 0
4941 1371 2 0.5564 8.32989906978516 5.84442605058076 -2.3736646297991335 5 -1 0
1601 258 1 -1.1128 8.462395406350762 0.07586191020836122 -5.32499320160183 -2 0 0
4889 1354 1 -1.1128 11.633069333136598 1.257051772602301 -5.455286297549559 5 1 0
3985 1052 2 0.5564 5.637256729744783 1.5194124854930635 -0.8559189583483167 -3 1 0
3983 1052 1 -1.1128 6.471538396646766 1.1539443804077907 -1.150264639589306 -3 1 0
4940 1371 1 -1.1128 8.728625777109096 4.974580533628053 -2.398540967033744 5 -1 0
3351 841 2 0.5564 12.775073080259853 1.7641678926308517 -0.1876211580392075 0 1 0
4585 1252 2 0.5564 9.287517521053061 2.0385916774780077 -1.9419386334215671 -1 -2 0
4583 1252 1 -1.1128 10.059399554210241 1.5458340069731644 -1.6633366314140614 -1 -2 0
2050 407 2 0.5564 10.638112151567785 4.635568948128555 -6.060642107224847 -3 -2 0
1206 126 2 0.5564 7.723989154958821 3.3661808120577077 -6.105530501890568 1 3 0
4495 1222 2 0.5564 6.675962588646172 3.450888940563271 -4.095876834552666 -2 2 0
4942 1371 2 0.5564 7.987393561702382 4.372635871667409 -2.465426513963679 5 -1 0
2049 407 2 0.5564 11.620997854630875 4.4385884109749645 -7.195116803092338 -3 -2 0
2419 530 2 0.5564 8.73919075397905 5.783478182016329 -5.332447913582441 -1 -2 0
2048 407 1 -1.1128 11.224672207525153 3.9870248654485394 -6.4499671242675145 -3 -2 0
3982 1051 2 0.5564 11.73282002156127 2.4858269973022313 -1.940272472108189 2 0 0
1276 149 2 0.5564 12.298713311947328 4.331911807406327 -4.957177396952261 3 2 0
2418 530 2 0.5564 9.356062440070032 5.180508913934688 -4.088344777532112 -1 -2 0
2685 619 2 0.5564 13.491175498636583 4.893238409817024 -10.15103142119093 -3 1 0
3586 919 2 0.5564 -1.8148833808420226 4.843882427452156 -14.238057976701102 -1 -1 0
2831 668 1 -1.1128 11.665653096495015 -0.012681452115501871 -7.970266218630805 0 1 0
4727 1300 1 -1.1128 12.248185275516658 7.641240647853454 -6.916064304039908 -4 4 0
1175 116 1 -1.1128 -0.1425771907506806 -0.5366627349772215 -8.713516319510925 -3 -2 0
2346 506 2 0.5564 5.714453362434792 7.493964387320978 -6.698910006041116 3 -1 0
2833 668 2 0.5564 12.581630140049953 -0.2354573657648578 -7.804166904834723 0 1 0
2079 417 2 0.5564 4.832477874389202 6.072040460795196 -4.243612459058411 4 -2 0
4171 1114 2 0.5564 4.108158186821842 7.649519924750261 -0.37476599265310423 1 5 0
4910 1361 1 -1.1128 11.77548427086626 -0.313205658258332 -14.137326739414519 1 3 0
869 14 1 -1.1128 13.64577105977446 4.554959737125746 -15.19463555547938 0 1 0
3188 787 1 -1.1128 6.962417409485736 6.7132567359631095 -7.851354940492679 3 1 0
3534 902 2 0.5564 13.735260686226194 2.1853552800310565 -9.096369369750143 -3 -2 0
3585 919 2 0.5564 -1.070182152257411 4.698844979610257 -12.927989808313454 -1 -1 0
2547 573 2 0.5564 -0.5930539915170463 7.240378168523459 -8.302941764202954 -5 1 0
2875 682 2 0.5564 13.97951944621259 7.289569874507908 -9.639713542299107 -3 0 0
1296 156 2 0.5564 9.701494163873459 -0.3137683838964535 -4.168747349398194 0 -1 0
2684 619 1 -1.1128 13.892576547092684 5.4835594901534295 -10.788706913869165 -3 1 0
3189 787 2 0.5564 6.9979347960083045 7.391221805558668 -8.526138915549728 3 1 0
2053 408 2 0.5564 13.637650713753919 1.4606298121895038 -5.3268225653388015 2 -1 0
3537 903 2 0.5564 4.431398908276052 -0.13519915256654336 -0.3189612435812147 -2 -2 0
4912 1361 2 0.5564 11.825679218442689 -0.38700230272553027 -13.184292791077876 1 3 0
1638 270 2 0.5564 12.896133046327959 7.278262836515123 -2.006054346401918 -2 2 0
1177 116 2 0.5564 0.7995893680871901 -0.36772393206172144 -8.709771991911385 -3 -2 0
4182 1118 2 0.5564 9.836692980097837 7.6839899159721226 -14.746119213173214 -1 1 0
1639 270 2 0.5564 13.529426274186477 7.571146494161353 -3.3495766227595136 -2 2 0
4733 1302 1 -1.1128 8.57672855939961 7.610407458251838 -5.3308079306332985 -6 0 0
1384 185 2 0.5564 14.014337343941298 7.715969557937241 -15.989743355103299 1 2 0
1712 295 1 -1.1128 0.8666692793603172 1.7707595798971683 -0.12868812976424032 -1 1 0
2546 573 1 -1.1128 -1.3845233783653037 7.765017555022005 -8.423613591747678 -5 1 0
5008 1393 2 0.5564 5.594549785699549 7.680939276839827 -15.830712953536253 -2 -1 0
2548 573 2 0.5564 -1.6779738607368577 7.556188690511569 -9.310467034982766 -5 1 0
4728 1300 2 0.5564 13.184304985244285 7.449487426761918 -6.860000232989971 -4 4 0
4780 1317 2 0.5564 7.115045422586775 -0.7045899666309126 -7.8637380547284685 -1 0 0
1143 105 2 0.5564 10.246255895054478 -0.694510086045085 -15.12637852505003 5 3 0
3245 806 1 -1.1128 3.6892846606874605 -0.6942648542099121 -6.51212193903204 1 3 0
4264 1145 2 0.5564 13.46109670074965 7.745094485802481 -0.027272887255891793 -6 -1 0
3126 766 2 0.5564 1.1998201434003435 1.7212719572112765 4.8347515726460655 4 6 0
1489 220 2 0.5564 14.11294680527268 -0.32338897325302013 19.563099969526576 0 -3 0
3127 766 2 0.5564 1.1528337672968092 2.7941386816199163 5.901826485469652 4 6 0
3125 766 1 -1.1128 0.5920454900048104 2.217113941612106 5.383373564850771 4 6 0
3490 887 2 0.5564 7.652463581066988 6.977424402855891 4.298006170212049 1 -1 0
2259 477 2 0.5564 2.9266773119795624 0.11363758042424285 3.521778948703286 4 -1 0
2868 680 2 0.5564 2.685510945282942 7.302476091035451 5.129958158457695 -3 0 0
4772 1315 1 -1.1128 -1.3484036606093686 -0.4722914692674561 5.682615197283171 1 0 0
2222 465 1 -1.1128 4.67160163313817 1.6349786362598364 5.948637865096653 -3 -2 0
2258 477 1 -1.1128 2.6118423742690795 0.796123774950459 4.11450825387102 4 -1 0
2260 477 2 0.5564 3.3817219751555476 1.0427072845803245 4.6270667362179765 4 -1 0
3639 937 2 0.5564 -0.8187055959340364 5.467300167537003 13.078341501561393 2 4 0
4648 1273 2 0.5564 3.7755710185074216 6.585323047770801 8.647430961046005 2 3 0
4389 1187 2 0.5564 0.8057486620818262 5.039887289762907 7.147481328128252 1 -3 0
4388 1187 1 -1.1128 1.459807176327957 4.342464357035639 7.102297152939849 1 -3 0
4663 1278 2 0.5564 -0.660170900168891 4.861388627293969 5.299074473795757 -3 1 0
4662 1278 2 0.5564 -0.14772843875572558 3.5403707106647944 4.765961553215127 -3 1 0
3617 930 1 -1.1128 0.21451406888780744 -0.2944810111565166 1.7018886654032317 -1 -3 0
3955 1042 2 0.5564 13.90488051239927 3.685177127874099 14.152477328998808 1 4 0
3290 821 1 -1.1128 -0.8821837525089308 5.8375480970020615 6.8798207121780806 -1 3 0
3310 827 2 0.5564 13.503623007637213 0.6493923424360829 3.8580098291784277 -3 -1 0
4661 1278 1 -1.1128 -0.5163092792224666 4.378055049367584 4.485487168278854 -3 1 0
3867 1013 2 0.5564 10.484770486759864 -0.1263398296250145 1.280990152424141 -2 -1 0
4390 1187 2 0.5564 2.277121518692176 4.762191988858509 7.370734177370576 1 -3 0
1420 197 2 0.5564 1.0062746172092276 5.449507685036436 4.15066471141433 2 0 0
4774 1315 2 0.5564 -0.8604328954506042 0.2790313806220882 6.01970561742075 1 0 0
2224 465 2 0.5564 4.294945400900509 1.8666572164335198 6.797571734033258 -3 -2 0
2975 716 1 -1.1128 4.485956234740956 5.035780528552785 2.348326033312244 0 -3 0
3180 784 2 0.5564 5.181120643818261 -0.07406502024151636 5.9270842229431215 -1 -1 0
4646 1273 1 -1.1128 3.7744514416077024 5.666595651976597 8.378780580322452 2 3 0
3883 1018 2 0.5564 3.382612260141523 3.4581494905341468 2.3303178941856286 -2 0 0
2117 430 1 -1.1128 5.059090418177163 3.280426730847352 0.16472533522720034 -1 -1 0
1953 375 2 0.5564 3.332560227597088 2.810700581107333 9.25232207238412 1 4 0
4773 1315 2 0.5564 -1.6792320200760853 -0.18183178762213556 4.83266377848264 1 0 0
3881 1018 1 -1.1128 2.8351529770426276 2.783044554648072 1.9293750825174039 -2 0 0
1650 274 2 0.5564 11.7637614250022 -0.07505656748069328 15.904003459482249 1 1 0
1418 197 1 -1.1128 1.5315103636161402 6.2424411511233595 4.042875126115439 2 0 0
3681 951 2 0.5564 13.35112577563269 2.00843137889444 2.245828861163824 2 2 0
3882 1018 2 0.5564 2.718145704126596 2.1286468718986242 2.618073784291097 -2 0 0
3618 930 2 0.5564 0.3010266971287016 0.4115924616604509 1.0614118112755593 -1 -3 0
2506 559 2 0.5564 13.239386417260958 6.42841360354915 9.67707508434146 2 2 0
3954 1042 2 0.5564 13.739969144083483 3.217420540788385 12.722127085201992 1 4 0
934 35 2 0.5564 10.930728866558496 0.31330274698237626 13.762740119200688 2 0 0
3536 903 1 -1.1128 4.403923263672794 0.12078204588952503 0.602965883637532 -2 -2 0
2504 559 1 -1.1128 13.638784193210647 6.192975447487171 10.514501007835044 2 2 0
2223 465 2 0.5564 5.45082045942336 2.1857936759519383 5.873450072650955 -3 -2 0
3866 1013 1 -1.1128 10.330486698665476 0.811793390022298 1.3920617030184257 -2 -1 0
1398 190 2 0.5564 12.74132351294615 3.646807410236704 3.9214587333890187 3 5 0
1521 231 2 0.5564 5.041318912212556 5.211592850733264 7.228431857145718 1 5 0
1756 309 2 0.5564 9.479017422115101 0.11980824252674442 4.472526565138783 2 0 0
4266 1146 2 0.5564 13.64196693835251 5.726591145281996 4.77023082108292 2 1 0
1755 309 2 0.5564 9.98486824775054 1.0147002754562027 3.361140309510225 2 0 0
1397 190 1 -1.1128 12.325194140321146 4.493965551471418 4.080802119355315 3 5 0
4155 1109 2 0.5564 7.182183096653277 7.50515569510998 14.3824500387141 2 0 0
2299 490 2 0.5564 7.002828326688629 6.158777863152149 0.3591398384231823 -3 1 0
1681 284 2 0.5564 7.756846000612115 2.1140249144615937 1.2724277223241727 -2 0 0
1819 330 2 0.5564 7.944074056981728 0.8948681504409435 6.76807461071656 0 -1 0
900 24 2 0.5564 6.605730981159364 4.478962547809355 4.893525575239265 -5 1 0
1520 231 1 -1.1128 5.662662124093362 5.072066087311604 6.513797241663895 1 5 0
1522 231 2 0.5564 6.5102132207319965 4.975677211135796 6.948083552799808 1 5 0
901 24 2 0.5564 7.806866964473876 3.959761713959631 4.132212711814517 -5 1 0
899 24 1 -1.1128 6.850474099041682 3.9256673946383915 4.151772766022023 -5 1 0
1679 284 1 -1.1128 8.114394894546518 2.5673214322477027 0.5089404956877523 -2 0 0
1680 284 2 0.5564 7.825240624549947 3.4740756010080083 0.6110059434525023 -2 0 0
1817 330 1 -1.1128 7.686975662416692 1.813285014970974 6.686543476710793 0 -1 0
3825 999 2 0.5564 8.912071013577917 4.869911892980973 1.397422893577533 1 -1 0
1818 330 2 0.5564 8.315947925927288 2.184552474146342 6.067845910573763 0 -1 0
1001 58 1 -1.1128 7.09027614232351 1.4120045312313423 2.8870483383421304 -3 5 0
1763 312 1 -1.1128 10.52543677501068 4.085330192586475 1.7446767419425415 0 0 0
1765 312 2 0.5564 10.673714582730726 4.5599625804315425 0.9267666580631225 0 0 0
3826 999 2 0.5564 7.831954417332738 5.584917777158192 2.1810097201260885 1 -1 0
1704 292 2 0.5564 12.719883991182542 2.5374541133938395 7.3071254390105445 0 1 0
1003 58 2 0.5564 6.851869414414763 2.180132283877615 3.4060606068356494 -3 5 0
4709 1294 1 -1.1128 12.077151021218665 1.4152966416358432 5.895771146870784 -3 -4 0
2298 490 2 0.5564 6.270256879988673 7.476082849045816 0.5003551903531709 -3 1 0
2896 689 2 0.5564 10.369126146929183 4.178898312167394 4.8080933264629655 4 3 0
4710 1294 2 0.5564 11.325094037442685 1.248568326165579 5.327577862786884 -3 -4 0
2976 716 2 0.5564 5.2012913427342315 4.9018379499672236 2.970086846322525 0 -3 0
3824 999 1 -1.1128 8.033263683292144 5.239397477114885 1.3113420188473595 1 -1 0
2894 689 1 -1.1128 9.52276676950193 4.358895756285571 5.217372574296201 4 3 0
2895 689 2 0.5564 9.233336099132615 5.179776566637873 4.819099892015383 4 3 0
1002 58 2 0.5564 7.917979381880393 1.1146051942369282 3.2647954052999126 -3 5 0
972 48 2 0.5564 6.157633626679196 6.648291722446498 5.928213715800663 -4 -1 0
1764 312 2 0.5564 10.339428644601863 3.1872511890361297 1.4706560372445225 0 0 0
3352 841 2 0.5564 11.933834143481738 1.2986671031764248 0.9817911785383724 0 1 0
2150 441 1 -1.1128 -0.4233161572331161 6.580352842992852 17.515880644479587 1 -1 0
1399 190 2 0.5564 11.880670462561982 4.701376843667329 3.2588466950209334 3 5 0
1754 309 1 -1.1128 9.438958053491918 1.0192059610858457 4.147394311233 2 0 0
2977 716 2 0.5564 4.826999289512932 4.708466724308685 1.5159869817142684 0 -3 0
971 48 1 -1.1128 6.362551992231062 7.535348612885699 5.63262855075984 -4 -1 0