LAMMPS data file via write_data, version 2 Aug 2023, timestep = 5500000, units = real

3832 atoms
4 atom types
2000 bonds
1 bond types
1000 angles
1 angle types
0 impropers
1 improper types

-1.8420299999999998 30.08661 xlo xhi
-0.709 33.323 ylo yhi
-150 150 zlo zhi

Masses

1 15.9994
2 1.00794
3 12.0107
4 12.0107

Pair Coeffs # lj/cut/tip4p/long

1 0.1852 3.1589
2 0 0
3 0.0859 3.3997
4 0.0859 3.3997

Bond Coeffs # harmonic

1 5000 0.9572

Angle Coeffs # harmonic

1 500 104.52

Atoms # full

1 1 3 0 0 0 -14.519096394668605 0 0 0
2 1 3 0 -1.22802 0.709 -14.519096394668605 0 0 0
3 1 3 0 -1.22802 2.127 -14.519096394668605 0 0 0
4 1 3 0 0 2.836 -14.519096394668605 0 0 0
5 1 3 0 2.45605 0 -14.519096394668605 0 0 0
6 1 3 0 1.22802 0.709 -14.519096394668605 0 0 0
7 1 3 0 1.22802 2.127 -14.519096394668605 0 0 0
8 1 3 0 2.45605 2.836 -14.519096394668605 0 0 0
9 1 3 0 4.9121 0 -14.519096394668605 0 0 0
10 1 3 0 3.68407 0.709 -14.519096394668605 0 0 0
11 1 3 0 3.68407 2.127 -14.519096394668605 0 0 0
12 1 3 0 4.9121 2.836 -14.519096394668605 0 0 0
14 1 3 0 6.14012 0.709 -14.519096394668605 0 0 0
15 1 3 0 6.14012 2.127 -14.519096394668605 0 0 0
53 1 3 0 0 4.254 -14.519096394668605 0 0 0
54 1 3 0 -1.22802 4.963 -14.519096394668605 0 0 0
55 1 3 0 -1.22802 6.381 -14.519096394668605 0 0 0
56 1 3 0 0 7.09 -14.519096394668605 0 0 0
57 1 3 0 2.45605 4.254 -14.519096394668605 0 0 0
58 1 3 0 1.22802 4.963 -14.519096394668605 0 0 0
59 1 3 0 1.22802 6.381 -14.519096394668605 0 0 0
60 1 3 0 2.45605 7.09 -14.519096394668605 0 0 0
61 1 3 0 4.9121 4.254 -14.519096394668605 0 0 0
62 1 3 0 3.68407 4.963 -14.519096394668605 0 0 0
63 1 3 0 3.68407 6.381 -14.519096394668605 0 0 0
64 1 3 0 4.9121 7.09 -14.519096394668605 0 0 0
66 1 3 0 6.14012 4.963 -14.519096394668605 0 0 0
67 1 3 0 6.14012 6.381 -14.519096394668605 0 0 0
1886 353 1 -1.1128 0.9688518344392876 1.8270637575451694 -9.809492610342796 4 -2 0
1887 353 2 0.5564 0.3660706541394878 1.083513299953503 -9.813934935292414 4 -2 0
3076 749 2 0.5564 1.1081745431100183 1.7998475300349117 -7.910551250380249 -2 0 0
3429 867 2 0.5564 5.293176254898976 3.4097948172174766 -10.359820324300077 -1 -3 0
2765 646 1 -1.1128 2.630438973335262 5.3172682890220555 -9.076096514054859 0 0 0
2767 646 2 0.5564 3.2118191715861832 5.783653201473451 -9.676691650765479 0 0 0
3428 867 1 -1.1128 5.640167658760012 3.691491432541446 -11.206271843880572 -1 -3 0
2766 646 2 0.5564 1.8601190657905344 5.880586418745863 -9.00185402690513 0 0 0
1743 305 2 0.5564 4.140822351460759 2.799709694916269 -8.073316112397523 3 1 0
1742 305 1 -1.1128 4.227333103612346 3.2654528307051103 -8.905082578538122 3 1 0
1744 305 2 0.5564 3.807115644029301 4.111601522215501 -8.75117020359325 3 1 0
2497 556 2 0.5564 3.7790587411300316 2.0329396411401452 -11.692594834653065 -3 2 0
2725 632 2 0.5564 1.4941189525985958 6.074153804641732 -12.32261329117499 -2 -2 0
2495 556 1 -1.1128 3.478867262609923 1.520292623712363 -10.942054554308065 -3 2 0
2422 531 2 0.5564 5.648478326819264 6.160760456551656 -9.24551384661334 4 0 0
2421 531 2 0.5564 5.70608172847163 5.418589690840649 -10.563755773115506 4 0 0
2720 631 1 -1.1128 -0.4540025566791001 -0.45337831544732204 -10.096871539763782 -1 -2 0
1888 353 2 0.5564 1.633342187628748 1.6012078160046057 -10.460394642372586 4 -2 0
2721 631 2 0.5564 -1.2348763723921172 -0.4089496777951106 -10.648684020473157 -1 -2 0
1188 120 2 0.5564 0.020900817563358653 3.4869177843467005 -10.373989135586198 -1 0 0
2420 531 1 -1.1128 5.482476342550051 6.2674790282519535 -10.182150487612136 4 0 0
2065 412 2 0.5564 -0.37916607410244313 6.890298528740909 -8.817617321770262 -2 0 0
2063 412 1 -1.1128 -0.15813361460094394 6.1079992873700375 -8.312258916862246 -2 0 0
2064 412 2 0.5564 -0.244924290542076 5.387003093146977 -8.935849827222622 -2 0 0
2496 556 2 0.5564 3.6576922950826827 2.077006825257928 -10.184209638983399 -3 2 0
1149 107 2 0.5564 3.686367579250817 -0.3601285714340207 -10.952483811374641 -3 -3 0
2723 632 1 -1.1128 0.846088201842182 6.26340067198963 -11.64403138343924 -2 -2 0
1189 120 2 0.5564 0.028171357653578567 4.735041011850522 -11.230749790662104 -1 0 0
1187 120 1 -1.1128 -0.5411380373917638 4.199539514503608 -10.678155228605462 -1 0 0
2724 632 2 0.5564 1.1577603113298804 7.069562071452711 -11.232695924815696 -2 -2 0
3430 867 2 0.5564 6.330073916496532 3.058577181317528 -11.405472202366061 -1 -3 0
1225 132 2 0.5564 8.002676417080677 2.0801370888859565 -9.998403801967035 1 4 0
906 26 2 0.5564 12.671012965125579 5.997238014227016 -10.99620152825636 1 0 0
13 1 3 0 7.36814 0 -14.519096394668605 0 0 0
16 1 3 0 7.36814 2.836 -14.519096394668605 0 0 0
17 1 3 0 9.82419 0 -14.519096394668605 0 0 0
18 1 3 0 8.59617 0.709 -14.519096394668605 0 0 0
19 1 3 0 8.59617 2.127 -14.519096394668605 0 0 0
20 1 3 0 9.82419 2.836 -14.519096394668605 0 0 0
21 1 3 0 12.2802 0 -14.519096394668605 0 0 0
22 1 3 0 11.0522 0.709 -14.519096394668605 0 0 0
23 1 3 0 11.0522 2.127 -14.519096394668605 0 0 0
24 1 3 0 12.2802 2.836 -14.519096394668605 0 0 0
26 1 3 0 13.5083 0.709 -14.519096394668605 0 0 0
27 1 3 0 13.5083 2.127 -14.519096394668605 0 0 0
65 1 3 0 7.36814 4.254 -14.519096394668605 0 0 0
68 1 3 0 7.36814 7.09 -14.519096394668605 0 0 0
69 1 3 0 9.82419 4.254 -14.519096394668605 0 0 0
70 1 3 0 8.59617 4.963 -14.519096394668605 0 0 0
71 1 3 0 8.59617 6.381 -14.519096394668605 0 0 0
72 1 3 0 9.82419 7.09 -14.519096394668605 0 0 0
73 1 3 0 12.2802 4.254 -14.519096394668605 0 0 0
74 1 3 0 11.0522 4.963 -14.519096394668605 0 0 0
75 1 3 0 11.0522 6.381 -14.519096394668605 0 0 0
76 1 3 0 12.2802 7.09 -14.519096394668605 0 0 0
78 1 3 0 13.5083 4.963 -14.519096394668605 0 0 0
79 1 3 0 13.5083 6.381 -14.519096394668605 0 0 0
3476 883 1 -1.1128 12.11608247120941 2.3922188658025836 -10.671464211810635 1 1 0
3478 883 2 0.5564 11.464907008300633 3.092203634362719 -10.624308258967037 1 1 0
3477 883 2 0.5564 12.528421899379357 2.3894402094661182 -9.807635151519703 1 1 0
3058 743 2 0.5564 7.301094767815008 6.823613296846799 -8.141240014538486 -2 1 0
907 26 2 0.5564 12.95885024091253 4.605074292981526 -11.516705907226738 1 0 0
3282 818 2 0.5564 11.013925809380764 0.7153200948298666 -10.856766927039857 -4 0 0
3025 732 2 0.5564 9.589831722182012 1.9989889885991128 -11.83690689831473 -2 1 0
3024 732 2 0.5564 9.213194268640752 3.4070348680635356 -11.427703635462935 -2 1 0
905 26 1 -1.1128 12.272747000003358 5.134295804414852 -11.109988311710289 1 0 0
1135 102 2 0.5564 10.543551130265246 5.3387506521091455 -11.402580065080842 -5 0 0
1133 102 1 -1.1128 9.644100085702277 5.371570598693257 -11.076784586352039 -5 0 0
3023 732 1 -1.1128 8.951215648709464 2.4924456457854416 -11.322220914680683 -2 1 0
1134 102 2 0.5564 9.358090216235006 6.268152941504734 -11.25162445446279 -5 0 0
3056 743 1 -1.1128 7.97855165011483 7.463185691506107 -8.360858658182133 -2 1 0
2046 406 2 0.5564 13.939431563418603 1.9696183164104688 -7.848282350899934 0 -1 0
2045 406 1 -1.1128 13.030837571499948 1.951153359351036 -8.148869668267807 0 -1 0
2047 406 2 0.5564 12.607459713678535 1.296828384545885 -7.593132191473402 0 -1 0
1223 132 1 -1.1128 7.674681562322881 1.6253165685098463 -9.222650109562242 1 4 0
3281 818 1 -1.1128 10.640919065478565 -0.1661964361772716 -10.851554745688043 -4 0 0
923 32 1 -1.1128 6.315965660286279 -0.6495055979637159 -9.918975385604048 -1 0 0
1813 328 2 0.5564 6.651895389857515 2.934003543820721 -7.9617903436003585 0 1 0
3711 961 2 0.5564 13.820277511884392 1.9106584880623743 -11.340690624067717 1 2 0
1224 132 2 0.5564 7.069136376207716 0.9690133928733506 -9.567347358658353 1 4 0
2103 425 2 0.5564 8.693423975122633 1.1198701250829401 -7.749165079255052 2 -1 0
1364 179 1 -1.1128 9.988981172248964 5.429327757414203 -8.12458365097567 2 2 0
1366 179 2 0.5564 9.21769576707261 5.942980269795472 -7.884766685537216 2 2 0
1365 179 2 0.5564 9.947191757409705 5.364819874562561 -9.078693476282245 2 2 0
3075 749 2 0.5564 1.4728662682080838 2.78275951898293 -6.81840536819094 -2 0 0
3074 749 1 -1.1128 1.0075270296159773 1.9605629383263488 -6.972320670140608 -2 0 0
3267 813 2 0.5564 0.6922921528109061 -0.002929532720526009 -6.297927506396044 4 -1 0
3158 777 1 -1.1128 5.783718207835606 5.561434609445078 -7.455740258933533 -2 2 0
851 8 1 -1.1128 -0.17277964396289439 5.003346575615973 -5.035908635818414 3 -1 0
3388 853 2 0.5564 1.0949918724324126 6.756985145457335 -7.165550403368301 2 1 0
1056 76 2 0.5564 4.086230272441783 -0.33779889640610133 -0.9682608881057144 1 -1 0
894 22 2 0.5564 -1.2467006237719418 6.6791568993876655 -6.60528414927274 0 -3 0
1419 197 2 0.5564 -0.6525291344203218 2.5672526240483253 -6.522368111037024 -3 2 0
3709 960 2 0.5564 -1.6842053681244245 -0.018631141240788223 -0.3490911878520639 0 0 0
2055 409 2 0.5564 3.283602552606332 7.464273890987486 -2.7718963979261653 3 -1 0
3160 777 2 0.5564 5.257890661022564 5.8263131145239155 -6.701036133749111 -2 2 0
3720 964 2 0.5564 2.398575063693064 6.18648551428786 -0.3966337728904152 -3 -1 0
2171 448 1 -1.1128 -1.1269526247923864 6.755901044112089 -1.948752141181975 4 1 0
1689 287 2 0.5564 4.860581133051111 0.6909081488119403 -6.51859968682963 -3 -1 0
1281 151 2 0.5564 2.4417042035036274 3.84841557453358 -4.990262869007548 -1 4 0
1688 287 1 -1.1128 4.37875607933207 1.4847341646284902 -6.750804884262318 -3 -1 0
3304 825 2 0.5564 2.2432943017162343 0.468513998044559 -4.812496389963878 -4 0 0
3302 825 1 -1.1128 2.9797678753853827 0.975792051173638 -4.471164345846964 -4 0 0
2173 448 2 0.5564 -1.3768556075610965 6.902297562528279 -1.0364211057311539 4 1 0
3303 825 2 0.5564 3.367505038620499 0.41412363203342206 -3.8000306354673836 -4 0 0
2673 615 2 0.5564 2.1901980162547123 2.791969275201545 -2.9375259304015997 -2 1 0
2672 615 1 -1.1128 2.312040488599618 3.7353774361262166 -3.0441444353195193 -2 1 0
2674 615 2 0.5564 3.2611258090254758 3.858383769342767 -3.0256758718215018 -2 1 0
1690 287 2 0.5564 3.7591843272521146 1.608389527021112 -6.031723984592274 -3 -1 0
1055 76 1 -1.1128 3.8849317137416737 0.19016658862886984 -0.19562343343380456 1 -1 0
852 8 2 0.5564 0.5034391586194251 4.556677875940064 -5.54526744481782 3 -1 0
1344 172 2 0.5564 1.7782630921106688 5.2680727060809724 -2.548934018110939 -2 -2 0
1685 286 1 -1.1128 1.0581700156387088 1.4721184286307836 -0.23640237581867227 -4 1 0
3294 822 2 0.5564 4.284267808579102 7.246694072956506 -4.782269590508524 0 1 0
2356 509 2 0.5564 5.625031532707795 4.621148960009129 -2.0116746060148 0 -3 0
1057 76 2 0.5564 4.559217329650636 0.8695018571347534 -0.18684707936188857 1 -1 0
1686 286 2 0.5564 1.6391706968717163 0.7173919361719802 -0.3315797316984743 -4 1 0
1343 172 1 -1.1128 1.7872811932281993 6.169695553231441 -2.227644117276632 -2 -2 0
1345 172 2 0.5564 0.8650215905702305 6.383196266390786 -2.0859172431816635 -2 -2 0
2354 509 1 -1.1128 5.288911003363804 4.1746928106726635 -2.7888049168482922 0 -3 0
2355 509 2 0.5564 5.749187139205256 3.3355144907734906 -2.801373214569536 0 -3 0
3293 822 1 -1.1128 4.0192584399248545 6.554691333769867 -5.388187036936649 0 1 0
3295 822 2 0.5564 3.121790066894437 6.780522505408772 -5.632696085664821 0 1 0
1418 197 1 -1.1128 -1.4618208993194746 2.8736702591478367 -6.113238342576395 -3 2 0
1420 197 2 0.5564 -1.2217683962141117 3.7014880098880236 -5.69691553373633 -3 2 0
3386 853 1 -1.1128 1.4552127779715602 7.266616745621355 -6.4397737364713485 2 1 0
853 8 2 0.5564 0.11522736074452818 5.915579276687917 -5.002521215545462 3 -1 0
1280 151 1 -1.1128 2.3732876462243784 4.001044411101883 -5.932737694766711 -1 4 0
1282 151 2 0.5564 2.906458384223397 4.780505863354727 -6.088947270557319 -1 4 0
3159 777 2 0.5564 6.175311409323506 4.727906162212104 -7.194739336748708 -2 2 0
1370 181 1 -1.1128 10.458560450982185 7.495255488894051 -3.4484596455111336 2 -2 0
1372 181 2 0.5564 10.876662005653477 7.289005425910931 -4.284452430169943 2 -2 0
3482 885 1 -1.1128 6.635502372910421 4.890684248953482 -0.28201115233020085 -2 -1 0
2277 483 2 0.5564 12.382069684930142 0.889518162489452 -4.786802603896263 -2 1 0
2915 696 1 -1.1128 7.166773452225602 -0.6244176150750428 -2.664535644818816 1 -1 0
2830 667 2 0.5564 13.930208560593973 6.573700816927036 -2.792854893617392 0 0 0
1922 365 1 -1.1128 13.726058654500497 0.8753560527646529 -1.1542752040509334 -2 2 0
1525 232 2 0.5564 11.523192622152976 7.0292198081065065 -7.173861252981414 2 2 0
1524 232 2 0.5564 12.450782078515745 6.973776260928608 -5.978704690258719 2 2 0
3484 885 2 0.5564 6.36431766752536 3.9750928163050636 -0.21580625129713843 -2 -1 0
2187 453 2 0.5564 6.986339476025228 4.499842564458792 -3.7568541820122063 -2 -3 0
996 56 2 0.5564 10.731438160914944 6.410647679933528 -2.0501021468668927 3 -1 0
995 56 1 -1.1128 10.823059751460999 5.6858265792667595 -1.4316534261092215 3 -1 0
1211 128 1 -1.1128 11.32630856181047 0.35407948172972065 -6.405457346736184 -1 2 0
2201 458 1 -1.1128 12.41374872577282 4.008640859441763 -4.176473887967791 0 0 0
3578 917 1 -1.1128 13.297455956359153 6.623535260371246 -0.8653412989258324 -3 2 0
2452 541 2 0.5564 10.096216606771916 1.8074020376588809 -0.06592277971747774 2 1 0
1923 365 2 0.5564 13.31944034183096 0.7954404168157354 -2.0171242264710405 -2 2 0
2829 667 2 0.5564 13.728878528748236 5.60248399776779 -3.9365765032184012 0 0 0
1212 128 2 0.5564 10.409572475493578 0.6294463456139197 -6.406029962654395 -1 2 0
2276 483 1 -1.1128 12.871124698542816 1.1102051029632918 -3.994113684585912 -2 1 0
1213 128 2 0.5564 11.348022137908446 -0.4090488134947587 -6.982861945962159 -1 2 0
1811 328 1 -1.1128 6.946204568676826 3.1694601496644235 -7.0819185527172355 0 1 0
1702 291 2 0.5564 8.062401866134898 6.534055364659622 -4.560176248507605 0 -1 0
3580 917 2 0.5564 12.536951230806936 6.075931663591756 -1.0602648868815232 -3 2 0
2203 458 2 0.5564 12.452507447663832 4.230403480390579 -5.106824027752344 0 0 0
1812 328 2 0.5564 7.272698964917747 2.3498045577554936 -6.710707029747755 0 1 0
1897 356 2 0.5564 12.501952115602364 3.554460205409018 -7.463534047663801 0 -2 0
1700 291 1 -1.1128 7.863806242283388 7.469673631822799 -4.5225736129329 0 -1 0
1896 356 2 0.5564 11.487705728455788 4.6655633290265754 -7.294263333595528 0 -2 0
1895 356 1 -1.1128 12.267581957167327 4.284606484026578 -6.890655063080603 0 -2 0
2202 458 2 0.5564 11.504609519810186 4.175386830527508 -3.9276896331856634 0 0 0
997 56 2 0.5564 10.263488086041795 5.927809721452926 -0.6937127726100791 3 -1 0
1632 268 2 0.5564 9.16000915509531 4.425023254078629 -3.7769400366303336 0 1 0
2104 425 2 0.5564 8.381744214399323 -0.10831784640581044 -6.92072790030646 2 -1 0
3568 913 2 0.5564 7.663976736738974 2.510839350352866 -2.9768691439566783 2 2 0
2186 453 1 -1.1128 7.602901465898578 4.699613173341072 -4.461252729110282 -2 -3 0
2278 483 2 0.5564 12.861690031227567 2.06691286944644 -3.964852622944211 -2 1 0
1371 181 2 0.5564 9.526156247795665 7.558266747153899 -3.655542840936778 2 -2 0
2102 425 1 -1.1128 8.500512006425055 0.8391812221932866 -6.85460540104455 2 -1 0
1523 232 1 -1.1128 11.531295132194487 7.088892552334536 -6.218556331301439 2 2 0
2127 433 2 0.5564 10.90309391851578 1.071941896303505 -2.6215191877415376 3 3 0
1633 268 2 0.5564 10.050465697189793 4.56573447847687 -2.560717268964407 0 1 0
2128 433 2 0.5564 10.083691432321663 2.3440835902722945 -2.5753565557674443 3 3 0
2126 433 1 -1.1128 10.12750989675739 1.458424851280015 -2.214908272600929 3 3 0
2188 453 2 0.5564 7.236464617173736 4.265006951981761 -5.231366121374638 -2 -3 0
1846 339 2 0.5564 6.471245359110987 1.8757260936048443 -0.5108873584834609 2 -2 0
1631 268 1 -1.1128 9.841436885714668 3.9711049220146637 -3.2811076119176636 0 1 0
3566 913 1 -1.1128 6.879343309485413 2.1351037885293813 -2.5776134945633293 2 2 0
3567 913 2 0.5564 7.000599894552323 1.1887389664609813 -2.654569859759983 2 2 0
1701 291 2 0.5564 7.017625387050019 7.553248939963384 -4.962148997965083 0 -1 0
2352 508 2 0.5564 13.04845322754252 -0.6712509076718831 -0.279070199587004 3 -2 0
2916 696 2 0.5564 7.5022309015652935 -0.6320661232414011 -1.7680744741302754 1 -1 0
3707 960 1 -1.1128 -1.588723239618571 0.568451064009881 0.4008764327007989 0 0 0
2576 583 1 -1.1128 1.2936571751420898 3.3128094980195173 6.251736527244503 4 1 0
1905 359 2 0.5564 1.8056079345220382 2.769392880998429 2.685722077923414 -2 1 0
2578 583 2 0.5564 1.523521111018516 2.914727452833367 5.412138199441731 4 1 0
1475 216 1 -1.1128 2.466754343966469 0.16231633132713083 5.357058410793992 4 -1 0
1477 216 2 0.5564 1.8138751474365589 0.45390569796466196 5.993421706222741 4 -1 0
1476 216 2 0.5564 1.9608749779069694 -0.04135221421685811 4.570393635714243 4 -1 0
3389 854 1 -1.1128 -0.35748714442786866 4.856412009068426 3.6967762913021054 -1 0 0
1904 359 1 -1.1128 1.1585810066393603 2.615559395085282 3.374146919796507 -2 1 0
1906 359 2 0.5564 0.7450285221976536 1.7864199948424622 3.1338656996101193 -2 1 0
1867 346 2 0.5564 4.881411962651211 5.540339612268658 2.472011307268979 -1 3 0
2577 583 2 0.5564 0.34589763549356406 3.4389023445945304 6.20607693755607 4 1 0
1421 198 1 -1.1128 2.3431034021401427 6.220442071222492 5.566384393998813 0 -3 0
1422 198 2 0.5564 1.8934273052020778 5.5690785239275655 6.104667813565204 0 -3 0
2654 609 1 -1.1128 4.311250360017604 2.2017017070667957 4.551580877786591 4 0 0
1549 240 2 0.5564 5.73872834039436 0.048891118132049036 2.2421151875279213 0 0 0
2656 609 2 0.5564 3.5415931619492103 1.6736889551503782 4.76386572333093 4 0 0
2655 609 2 0.5564 4.825991171415753 1.649742297514016 3.9628382848520936 4 0 0
1547 240 1 -1.1128 6.0897052381576895 0.9265771531429033 2.39282970294613 0 0 0
2310 494 2 0.5564 -0.4975519664345294 0.14531857174371407 7.4586866771061695 5 3 0
3449 874 1 -1.1128 4.360255254941702 5.035040073149084 4.097865125187497 1 -1 0
3719 964 1 -1.1128 2.735099298640117 5.959270786727325 0.4701763943700363 -3 -1 0
3451 874 2 0.5564 4.2550542053436615 4.118291036530743 4.352300075806129 1 -1 0
3708 960 2 0.5564 -0.8771980228951572 1.1592668169086484 0.15408994508967364 0 0 0
2309 494 1 -1.1128 0.3917983523427315 -0.16077019312785334 7.280923657799923 5 3 0
1423 198 2 0.5564 1.7682211646158685 6.98555324917172 5.585221465421192 0 -3 0
3390 854 2 0.5564 0.14421220107178223 5.541134014125492 3.25441221225741 -1 0 0
3721 964 2 0.5564 1.9980334041138346 6.112213840821808 1.0614293622879873 -3 -1 0
1798 323 2 0.5564 3.612114628645509 6.969748844339557 6.443488497150069 5 3 0
835 2 2 0.5564 4.02014658166101 -0.4318656391816633 5.511932839449977 -3 1 0
3450 874 2 0.5564 3.674254855723496 5.497856302809128 4.578946369004247 1 -1 0
2851 674 2 0.5564 5.7237515507994425 1.6418744002333532 5.427352828664142 -2 1 0
2288 487 1 -1.1128 2.6356483967439166 3.284146216495506 1.1841610737290027 -1 -1 0
1682 285 1 -1.1128 1.299077053899452 -0.3389375946515812 2.841696095710122 -1 -5 0
3736 969 2 0.5564 6.097425293124932 7.104222852910321 6.108813142082242 3 1 0
1683 285 2 0.5564 0.4584350623369821 -0.39452371389897933 2.387313575906657 -1 -5 0
834 2 2 0.5564 5.403491385120177 -0.3640516607344748 6.123204987238486 -3 1 0
1574 249 1 -1.1128 -1.4246801834441152 2.9683744174064186 6.006787154328608 3 0 0
1866 346 2 0.5564 4.23820683380004 6.020604627503592 1.188450638917809 -1 3 0
1796 323 1 -1.1128 4.34457618280206 7.309077628078149 6.957874163087581 5 3 0
3403 858 2 0.5564 -1.2512640588757693 6.893093672827737 4.302440547515084 4 1 0
990 54 2 0.5564 -0.2517714371571436 7.251710977159663 1.446316895851419 1 -4 0
1865 346 1 -1.1128 5.063723577790729 6.034506734326136 1.6727656881776474 -1 3 0
1687 286 2 0.5564 1.5784557501178753 2.116488046130096 0.24351983069113017 -4 1 0
989 54 1 -1.1128 0.6293277364986152 7.168186742976292 1.8109047688820696 1 -4 0
3391 854 2 0.5564 0.22950928967807926 4.100470700141263 3.711697479835418 -1 0 0
2290 487 2 0.5564 3.518157468760773 2.927661342118317 1.082531148032209 -1 -1 0
2289 487 2 0.5564 2.7092364975361156 4.193385254363028 0.8941526555601769 -1 -1 0
1844 339 1 -1.1128 5.835249017203023 2.2128629885601856 0.1200477695261667 2 -2 0
1519 230 2 0.5564 13.174591860167567 6.431618170592947 7.129901837711657 -1 -1 0
1548 240 2 0.5564 7.035747527161256 0.7981629426025939 2.4617230548810585 0 0 0
1518 230 2 0.5564 11.669550455183153 6.365521344597429 7.279492886872189 -1 -1 0
2024 399 1 -1.1128 13.750130571747242 -0.4625684535913776 5.370953898354398 3 1 0
1972 381 2 0.5564 11.39262540988443 7.760881931340333 4.833930557202718 -1 0 0
2450 541 1 -1.1128 9.717849726306165 2.344738398791736 0.6300229410240697 2 1 0
2831 668 1 -1.1128 13.051412247234582 3.080382817511906 0.968001821138447 -2 0 0
2833 668 2 0.5564 13.103895457740602 2.3788759654305234 0.31887470198145956 -2 0 0
3734 969 1 -1.1128 6.90750227791061 6.867567833524924 5.657148023827417 3 1 0
1845 339 2 0.5564 6.159510272247313 1.9152160130571152 0.970043632979105 2 -2 0
2154 442 2 0.5564 13.32680746082467 5.324885058365957 5.099592682800658 2 2 0
1315 162 2 0.5564 8.936339345401997 0.6503093886753072 3.3522703560099885 2 1 0
3231 801 2 0.5564 8.59028136246035 4.791992499522289 0.4012643479539858 3 4 0
1314 162 2 0.5564 8.881504925704622 1.3275523555894753 1.9994089351040187 2 1 0
1407 193 2 0.5564 12.49962000684974 2.519770863748334 4.478943355427336 -2 -1 0
3789 987 2 0.5564 6.441580795086165 4.43952252336703 7.0823601520535675 3 0 0
3561 911 2 0.5564 8.562906351661361 5.33478546423981 4.684774707818394 -2 -2 0
1451 208 1 -1.1128 8.996795266247807 0.6398052664302185 5.293220284050077 1 -3 0
1452 208 2 0.5564 8.302717890555387 0.4164551615330863 5.9133857322333885 1 -3 0
1453 208 2 0.5564 9.385019075614771 -0.20184771135312632 5.054187460337085 1 -3 0
3560 911 1 -1.1128 9.320013476083735 4.869267987483166 4.329367513943231 -2 -2 0
3562 911 2 0.5564 10.06144112929363 5.449341509163909 4.502662893418471 -2 -2 0
2264 479 1 -1.1128 10.547110188115951 2.701981850507437 4.938549344825656 -3 -2 0
2265 479 2 0.5564 9.869738630493009 2.057101277479708 5.142336146758316 -3 -2 0
2266 479 2 0.5564 10.068996049982815 3.522507214032236 4.818643846107599 -3 -2 0
2911 694 2 0.5564 12.949205003118587 5.334374413597354 2.6622015477274212 0 -1 0
2909 694 1 -1.1128 12.487150303740744 5.370578621764076 1.8246893313679864 0 -1 0
1406 193 1 -1.1128 13.433804380025688 2.3242386308707754 4.406131505497993 -2 -1 0
2134 435 2 0.5564 11.65944869550358 2.9583864693534387 6.558020988083912 -4 -1 0
3483 885 2 0.5564 6.398689021432042 5.2728223891044825 0.563046041933864 -2 -1 0
1408 193 2 0.5564 13.471957066495412 1.374837549200384 4.290306520049921 -2 -1 0
3788 987 1 -1.1128 7.326495188870544 4.431742722853934 6.71753250239184 3 0 0
3735 969 2 0.5564 7.15981173555302 6.027820858006621 6.04107096051244 3 1 0
2850 674 2 0.5564 6.917626768005852 2.0997740050465685 6.2378377829610665 -2 1 0
2849 674 1 -1.1128 6.296616274633968 1.3770482816918548 6.147026003351121 -2 1 0
1313 162 1 -1.1128 8.6965938357504 0.4972454289824693 2.438308560279263 2 1 0
1517 230 1 -1.1128 12.430927665759263 5.834999433819961 7.044787846488721 -1 -1 0
2910 694 2 0.5564 12.668190759431642 4.525134956975347 1.413979908501267 0 -1 0
2832 668 2 0.5564 13.851695089765418 2.989165232202067 1.4851669499252709 -2 0 0
3579 917 2 0.5564 13.247372385153465 6.776724787990851 0.07819284775590954 -3 2 0
3230 801 1 -1.1128 9.171013730187866 5.177234091782519 1.057444047715434 3 4 0
2451 541 2 0.5564 10.382261165979049 3.0106199072533055 0.8071982256773172 2 1 0
2099 424 1 -1.1128 10.895118404628864 7.51100172011521 2.6262424823305124 1 4 0
2132 435 1 -1.1128 11.96143169534338 3.048171046581103 7.461889165201111 -4 -1 0
3790 987 2 0.5564 7.89453304491795 4.632248204646713 7.46141953860127 3 0 0
2100 424 2 0.5564 11.202289347537455 6.646166044265856 2.3543173682591045 1 4 0
2902 691 2 0.5564 10.512388028970147 7.760807714623366 7.1141619776079015 4 0 0
3232 801 2 0.5564 9.122036837651343 4.578299971205841 1.802501920384833 3 4 0
2155 442 2 0.5564 13.703192499203434 4.1280181626316965 4.252395617640862 2 2 0
2153 442 1 -1.1128 13.672761534248922 5.084657716928502 4.240034875073873 2 2 0
1618 263 2 0.5564 6.383973903127494 7.4710320520598925 0.8327569069068427 -3 5 0
2101 424 2 0.5564 9.967659545521933 7.3843174546918595 2.826255088165393 1 4 0
2016 396 2 0.5564 7.577308443506077 7.7231361613564555 2.663568324793638 1 1 0
2017 396 2 0.5564 7.784629839471893 7.631990973226122 4.160433992482745 1 1 0
2490 554 2 0.5564 3.7821435114209647 7.359333233956066 11.378030162103462 1 -1 0
2311 494 2 0.5564 0.7667509728403836 -0.3243893206339121 8.146297342600796 5 3 0
2213 462 1 -1.1128 1.0802847385458354 0.20245940288927083 10.10768095976303 0 4 0
2602 591 2 0.5564 0.558095496564125 -0.3026044207978634 13.44785990810911 5 0 0
1347 173 2 0.5564 1.1032074404261345 2.949039154849501 8.405068938544847 0 -3 0
1346 173 1 -1.1128 0.9943852200809855 2.9705106005772812 9.355821644558274 0 -3 0
1797 323 2 0.5564 4.501895115493193 6.638643641489415 7.622707005186566 5 3 0
2769 647 2 0.5564 2.4831042071998763 6.369894931752524 13.60067897987575 4 2 0
2811 661 2 0.5564 -0.8905469019406782 2.8969934684397916 13.247028083418629 -1 4 0
1659 277 2 0.5564 2.4673190166532817 5.61053086407367 10.084430150496214 -3 1 0
2596 589 2 0.5564 -1.0415229708158278 7.476749574304037 12.38641150576326 -2 0 0
2215 462 2 0.5564 0.9862272932768874 0.2671024922147116 11.05805276276813 0 4 0
1589 254 1 -1.1128 3.6595389861423886 -0.18480289835208938 9.138559265065737 1 5 0
2601 591 2 0.5564 0.21817943533447529 1.105689829526756 13.008474688728041 5 0 0
1142 105 1 -1.1128 3.8613071996451893 0.02324985142127086 13.215376511974176 1 3 0
2698 623 2 0.5564 4.804948080179803 7.045702633534356 13.121269400642543 -3 -2 0
2810 661 1 -1.1128 -1.2314342021469735 2.13207016371652 12.78343309670217 -1 4 0
1144 105 2 0.5564 3.048640193121246 0.44791385656353666 13.490085985805415 1 3 0
1143 105 2 0.5564 4.053353955434365 0.4041437643725235 12.358481119730797 1 3 0
2770 647 2 0.5564 1.8308931624828257 5.58199218279359 12.4845580658225 4 2 0
1658 277 1 -1.1128 1.7078105273210975 5.270670353350644 10.55758354832952 -3 1 0
2906 693 1 -1.1128 -0.7497296075640518 6.664759330696631 10.689733241930423 -4 1 0
2944 705 2 0.5564 -0.6432646767082347 2.7606969374252457 9.589389387857956 1 3 0
1018 63 2 0.5564 -0.0018695113292329518 5.0804710366428045 13.382903361318144 -5 0 0
1348 173 2 0.5564 1.0964378390131861 2.0590229938659745 9.629700971717646 0 -3 0
1660 277 2 0.5564 1.4562948716830248 4.483755438146176 10.074114542301107 -3 1 0
2943 705 2 0.5564 -1.6222405098031583 2.3033989702431596 10.649757253194101 1 3 0
1017 63 2 0.5564 -1.3144398253266754 5.247704061684522 12.647316236211132 -5 0 0
1016 63 1 -1.1128 -0.9142815575922888 4.791130286559949 13.387346880139907 -5 0 0
2942 705 1 -1.1128 -1.5720522581722227 2.5807361258879276 9.734991170185106 1 3 0
2908 693 2 0.5564 0.062232509130604574 6.163925611284684 10.611505921906332 -4 1 0
1591 254 2 0.5564 3.8836376608042267 0.7085874667216906 8.878049665204559 1 5 0
2768 647 1 -1.1128 1.7025826389326195 5.8563650517213315 13.392572929347388 4 2 0
3492 888 2 0.5564 4.809825452424412 3.97948069128315 8.785405899225752 3 -3 0
3493 888 2 0.5564 5.629329027923254 5.182358806325059 9.201812396981653 3 -3 0
3491 888 1 -1.1128 4.9875095361828885 4.891165761217782 8.554117501998237 3 -3 0
2600 591 1 -1.1128 0.9415768211141774 0.4804214517933035 13.052835515992443 5 0 0
1007 60 1 -1.1128 5.2250752148637405 2.2427542332677044 8.874842629274134 2 2 0
1008 60 2 0.5564 5.208407576141437 2.0177499308073945 7.944613112121343 2 2 0
1009 60 2 0.5564 6.122605024203199 2.056790633471895 9.150686871858932 2 2 0
2907 693 2 0.5564 -0.7109483620713072 7.298216030914009 9.973169577566985 -4 1 0
1117 96 2 0.5564 5.763165033645167 1.196100877002948 13.367966788363066 -1 -2 0
1115 96 1 -1.1128 5.888333360945299 1.6097245246597893 12.513870571911227 -1 -2 0
2595 589 2 0.5564 -0.18391861942827026 7.32609272042216 13.624842985019043 -2 0 0
2696 623 1 -1.1128 3.995640441087841 7.554706057375338 13.167842118866213 -3 -2 0
2214 462 2 0.5564 2.0256113516274294 0.16526021624843518 9.96205815606265 0 4 0
2489 554 1 -1.1128 3.859849171757016 7.466420311000768 10.430018312674463 1 -1 0
1590 254 2 0.5564 4.428108517044026 -0.7038191709699007 8.901588243363035 1 5 0
3809 994 1 -1.1128 13.790402688610511 2.809296782953211 13.336490104837527 -3 -3 0
3811 994 2 0.5564 13.816538507314556 2.251808757719308 12.558829406184497 -3 -3 0
3784 985 2 0.5564 14.114174366277368 4.914148241667686 13.34620704106358 1 -2 0
3306 826 2 0.5564 7.337393678058614 6.324435086266211 13.420431852998298 -2 1 0
3188 787 1 -1.1128 8.892285635138927 7.221003023067567 13.490405851302503 -1 -1 0
3307 826 2 0.5564 6.343236705678277 5.213446984769139 13.157269757090729 -2 1 0
1279 150 2 0.5564 6.31900784707835 0.09378988907115189 11.240021252411525 -1 3 0
3782 985 1 -1.1128 14.044545939450746 5.86555674799618 13.42499057962652 1 -2 0
2098 423 2 0.5564 13.584587824355001 4.112552546982214 9.422185097197993 -1 -3 0
1024 65 2 0.5564 8.33598017357786 -0.22567898160655564 14.21151389580316 1 0 0
2573 582 1 -1.1128 14.109904608922516 1.5270759188502656 10.697779205417367 4 0 0
3305 826 1 -1.1128 6.430307468315561 6.166677753536646 13.158624876578141 -2 1 0
3059 744 1 -1.1128 11.966608156838367 7.188735389990526 10.34293998104788 -3 3 0
2901 691 2 0.5564 9.995389363937367 6.6029070546981155 7.941128936857387 4 0 0
3692 955 1 -1.1128 11.505056827966017 6.549858652622766 12.915063373169929 0 0 0
2900 691 1 -1.1128 10.4940479743694 7.417265514596728 8.007400446481084 4 0 0
1022 65 1 -1.1128 8.359258080925159 0.29924749859040445 13.411424163759207 1 0 0
3693 955 2 0.5564 12.390425734136814 6.329600012430374 13.204614961969211 0 0 0
3060 744 2 0.5564 11.603121738112648 7.370688919322794 9.4763342967836 -3 3 0
2487 553 2 0.5564 6.558877877335532 6.289739241150409 10.83838010001487 3 0 0
2133 435 2 0.5564 12.270284117835741 3.952107798134284 7.523056664180893 -4 -1 0
3694 955 2 0.5564 11.606582642476148 6.790210659462819 11.994109776223043 0 0 0
878 17 1 -1.1128 7.724532246878802 3.4704608909929466 13.010411133677756 1 4 0