LAMMPS data file via write_data, version 2 Aug 2023, timestep = 7000000, units = real

3232 atoms
4 atom types
1600 bonds
1 bond types
800 angles
1 angle types
0 impropers
1 improper types

-1.8420299999999998 30.08661 xlo xhi
-0.709 33.323 ylo yhi
-150 150 zlo zhi

Masses

1 15.9994
2 1.00794
3 12.0107
4 12.0107

Pair Coeffs # lj/cut/tip4p/long

1 0.1852 3.1589
2 0 0
3 0.0859 3.3997
4 0.0859 3.3997

Bond Coeffs # harmonic

1 5000 0.9572

Angle Coeffs # harmonic

1 500 104.52

Atoms # full

1 1 3 0 0 0 -13.028967241974486 0 0 0
2 1 3 0 -1.22802 0.709 -13.028967241974486 0 0 0
3 1 3 0 -1.22802 2.127 -13.028967241974486 0 0 0
4 1 3 0 0 2.836 -13.028967241974486 0 0 0
5 1 3 0 2.45605 0 -13.028967241974486 0 0 0
6 1 3 0 1.22802 0.709 -13.028967241974486 0 0 0
7 1 3 0 1.22802 2.127 -13.028967241974486 0 0 0
8 1 3 0 2.45605 2.836 -13.028967241974486 0 0 0
9 1 3 0 4.9121 0 -13.028967241974486 0 0 0
10 1 3 0 3.68407 0.709 -13.028967241974486 0 0 0
11 1 3 0 3.68407 2.127 -13.028967241974486 0 0 0
12 1 3 0 4.9121 2.836 -13.028967241974486 0 0 0
14 1 3 0 6.14012 0.709 -13.028967241974486 0 0 0
15 1 3 0 6.14012 2.127 -13.028967241974486 0 0 0
53 1 3 0 0 4.254 -13.028967241974486 0 0 0
54 1 3 0 -1.22802 4.963 -13.028967241974486 0 0 0
55 1 3 0 -1.22802 6.381 -13.028967241974486 0 0 0
56 1 3 0 0 7.09 -13.028967241974486 0 0 0
57 1 3 0 2.45605 4.254 -13.028967241974486 0 0 0
58 1 3 0 1.22802 4.963 -13.028967241974486 0 0 0
59 1 3 0 1.22802 6.381 -13.028967241974486 0 0 0
60 1 3 0 2.45605 7.09 -13.028967241974486 0 0 0
61 1 3 0 4.9121 4.254 -13.028967241974486 0 0 0
62 1 3 0 3.68407 4.963 -13.028967241974486 0 0 0
63 1 3 0 3.68407 6.381 -13.028967241974486 0 0 0
64 1 3 0 4.9121 7.09 -13.028967241974486 0 0 0
66 1 3 0 6.14012 4.963 -13.028967241974486 0 0 0
67 1 3 0 6.14012 6.381 -13.028967241974486 0 0 0
2293 488 2 0.5564 3.3975809274263082 4.633385494339809 -9.277943704219242 1 1 0
2517 563 2 0.5564 1.2579507593952544 4.676779486411292 -9.455088881120586 0 -2 0
1093 88 2 0.5564 12.237831134436082 5.869437906051703 -0.6435001690842215 0 0 0
2518 563 2 0.5564 0.9668937445609237 3.191120946678855 -9.455148315662154 0 -2 0
2516 563 1 -1.1128 1.6771851372949202 3.8233105902411046 -9.564939996089347 0 -2 0
2050 407 2 0.5564 -0.16147814936827293 -0.5194172323861865 -6.382653145284277 -4 0 0
1062 78 2 0.5564 -0.3863067644059279 1.151797391043232 -8.764374550924938 0 2 0
1061 78 1 -1.1128 0.5702310524792028 1.176826847438968 -8.73904999660192 0 2 0
1063 78 2 0.5564 0.8443580586259911 0.4713146673728796 -9.32500375057543 0 2 0
2737 636 2 0.5564 5.969855536704101 -0.018410539460294438 -7.828599720813386 3 1 0
1695 289 2 0.5564 0.7369585942650245 7.060515668132701 -9.075925903245306 1 1 0
1789 320 2 0.5564 10.507722820995124 3.690375196471489 -2.874358248658311 -2 -1 0
1696 289 2 0.5564 0.2547642851816672 6.273744760906635 -7.87576833700039 1 1 0
1694 289 1 -1.1128 0.2954094475672566 6.247103113259135 -8.831735926075094 1 1 0
2446 539 2 0.5564 9.47185327402065 0.89866007889388 -6.107648681911961 2 0 0
1645 272 2 0.5564 14.076214995346813 2.253135305787082 -8.862313578719524 4 3 0
1158 110 2 0.5564 5.595563595635365 0.7084714724087229 -10.48940193250009 1 0 0
1703 292 1 -1.1128 -0.9574332890762174 1.7412751983629395 -1.538778844733655 2 1 0
1442 205 1 -1.1128 4.3079016724629895 1.3679711186824202 -0.19661713761971572 -2 0 0
1966 379 2 0.5564 11.190544132334729 7.503035110326892 -4.546556236647909 3 -5 0
1091 88 1 -1.1128 12.011737647340496 6.749476055176533 -0.3424178178118096 0 0 0
2292 488 2 0.5564 4.271291361023954 5.867449374088638 -9.352905645174145 1 1 0
2291 488 1 -1.1128 4.038920432011273 5.138291120519375 -8.77795588926799 1 1 0
2396 523 1 -1.1128 8.235646931886153 1.7348981471838834 -9.596533689418383 -3 -2 0
2397 523 2 0.5564 7.36916431288368 2.002235926569012 -9.289986371059465 -3 -2 0
2398 523 2 0.5564 8.680089906143293 2.556368070101023 -9.806035980461905 -3 -2 0
2484 552 2 0.5564 9.699295089741268 4.928585408587307 -9.492834617370454 -2 -1 0
1587 253 2 0.5564 9.093627495501693 0.02958672509166519 -9.209662642256019 -2 -2 0
2483 552 1 -1.1128 10.092650604534573 4.1014338645792945 -9.77090809839029 -2 -1 0
2485 552 2 0.5564 10.883034320840052 4.020140708881348 -9.237129616544658 -2 -1 0
1781 318 1 -1.1128 12.041454993676561 1.2318759876980225 -9.863589790435821 -1 3 0
1782 318 2 0.5564 12.565793563226585 1.035319680505884 -9.08727373234043 -1 3 0
2075 416 1 -1.1128 9.572244069978035 6.921531471877448 -8.755732137078502 -2 2 0
2049 407 2 0.5564 0.8566411519653396 0.049046726413385686 -7.348145989548117 -4 0 0
13 1 3 0 7.36814 0 -13.028967241974486 0 0 0
16 1 3 0 7.36814 2.836 -13.028967241974486 0 0 0
17 1 3 0 9.82419 0 -13.028967241974486 0 0 0
18 1 3 0 8.59617 0.709 -13.028967241974486 0 0 0
19 1 3 0 8.59617 2.127 -13.028967241974486 0 0 0
20 1 3 0 9.82419 2.836 -13.028967241974486 0 0 0
21 1 3 0 12.2802 0 -13.028967241974486 0 0 0
22 1 3 0 11.0522 0.709 -13.028967241974486 0 0 0
23 1 3 0 11.0522 2.127 -13.028967241974486 0 0 0
24 1 3 0 12.2802 2.836 -13.028967241974486 0 0 0
26 1 3 0 13.5083 0.709 -13.028967241974486 0 0 0
27 1 3 0 13.5083 2.127 -13.028967241974486 0 0 0
65 1 3 0 7.36814 4.254 -13.028967241974486 0 0 0
68 1 3 0 7.36814 7.09 -13.028967241974486 0 0 0
69 1 3 0 9.82419 4.254 -13.028967241974486 0 0 0
70 1 3 0 8.59617 4.963 -13.028967241974486 0 0 0
71 1 3 0 8.59617 6.381 -13.028967241974486 0 0 0
72 1 3 0 9.82419 7.09 -13.028967241974486 0 0 0
73 1 3 0 12.2802 4.254 -13.028967241974486 0 0 0
74 1 3 0 11.0522 4.963 -13.028967241974486 0 0 0
75 1 3 0 11.0522 6.381 -13.028967241974486 0 0 0
76 1 3 0 12.2802 7.09 -13.028967241974486 0 0 0
78 1 3 0 13.5083 4.963 -13.028967241974486 0 0 0
79 1 3 0 13.5083 6.381 -13.028967241974486 0 0 0
1705 292 2 0.5564 -1.192738357099951 1.3896986251293748 -0.6801405879024875 2 1 0
2077 416 2 0.5564 10.32815048312527 7.386179656047369 -9.11481400101993 -2 2 0
1644 272 2 0.5564 13.612781014172896 2.7114156266940497 -10.22873502116907 4 3 0
1783 318 2 0.5564 11.14972459493111 1.3346258845932442 -9.531187507390555 -1 3 0
3002 725 1 -1.1128 12.4689794194814 7.168515727151126 -9.529172073185022 2 -2 0
2849 674 1 -1.1128 12.852290320105807 6.670428483542606 -4.182837132899083 0 0 0
3003 725 2 0.5564 12.462734810424328 6.241790562960411 -9.289645566544399 2 -2 0
1074 82 2 0.5564 13.079969437546724 3.9098982694284596 -8.908659094740807 -4 1 0
1873 348 2 0.5564 8.852906702905928 0.7966993813252319 -4.199617931035861 1 1 0
1053 75 2 0.5564 11.419169537569484 3.662826212848886 -5.229011850220542 -2 2 0
3004 725 2 0.5564 13.396516655045446 7.40359958330698 -9.554490317364284 2 -2 0
1453 208 2 0.5564 -1.3999388642857833 7.200858663935339 -9.534901260466842 0 1 0
2445 539 2 0.5564 10.098622355083924 0.13181994795399365 -7.252642552573978 2 0 0
1092 88 2 0.5564 11.058679983319289 6.792321032042697 -0.42037126477715897 0 0 0
1961 378 1 -1.1128 1.4622324088263945 0.740534623603569 -0.42406337063278093 -1 4 0
2850 674 2 0.5564 13.435126443014232 7.070357955631935 -4.828276981821646 0 0 0
2360 511 1 -1.1128 0.8975760080646041 7.58407025340797 -3.0213336595693843 1 -2 0
2098 423 2 0.5564 0.4961684930309658 5.825408316539125 -3.3443486397538655 4 -2 0
2329 500 2 0.5564 2.759501222165221 1.7839181609639498 -7.865337418344875 -1 0 0
1159 110 2 0.5564 4.487125216127236 0.5382105898083337 -9.472411497033537 1 0 0
2615 596 1 -1.1128 1.708414825847096 4.36230715432817 -1.0964358037112514 -1 -1 0
1724 299 1 -1.1128 13.292225917831914 4.369684102262838 -1.201434876882921 -1 -4 0
1530 234 2 0.5564 1.1417385758945118 2.3818187183944515 -4.786082388877822 4 0 0
2661 611 2 0.5564 5.279015375952553 2.468064746425059 -7.980169204249654 2 4 0
2786 653 1 -1.1128 2.755473184299786 2.860581282677875 -5.258603182632998 1 1 0
2096 423 1 -1.1128 0.23781891453612472 4.90384473702101 -3.3298974147268834 4 -2 0
2616 596 2 0.5564 2.5121737257432626 4.613809340533595 -0.6415179791333243 -1 -1 0
2385 519 2 0.5564 3.5290615623704866 6.620177446866127 -5.968084189982529 -1 3 0
2780 651 1 -1.1128 -1.2373953340006294 -0.09842429924236044 -5.234843887639551 1 1 0
2735 636 1 -1.1128 6.592535327346909 -0.04312229490196226 -7.102038073270006 3 1 0
1387 186 2 0.5564 -1.5874108836074023 6.6702978679168465 -1.852797809342679 8 -5 0
1035 69 2 0.5564 10.140658845582765 4.931235166923661 -6.182580891410113 0 -1 0
1825 332 2 0.5564 4.643881023784119 7.181988463045245 -2.8750298745010716 2 2 0
2438 537 1 -1.1128 0.5619357612219413 6.191927546663948 -6.102583790531163 4 -1 0
2561 578 1 -1.1128 5.207735857085253 4.212949618666832 -3.970767247740511 2 1 0
1824 332 2 0.5564 4.258895193481381 5.787781097387176 -3.3220966987350784 2 2 0
1823 332 1 -1.1128 3.9294489965297266 6.685202777803122 -3.2738113299804854 2 2 0
1962 378 2 0.5564 1.0328676638913614 1.4607156325083896 -0.8858206851654757 -1 4 0
2439 537 2 0.5564 0.6411659689877577 5.263237559004145 -5.884662038894739 4 -1 0
1792 321 2 0.5564 13.589500087323627 1.352362959499619 -4.307975905492367 1 0 0
2440 537 2 0.5564 1.4482404855927058 6.457276656158656 -6.348125161531002 4 -1 0
1386 186 2 0.5564 -1.2963142294198153 5.26984422096648 -2.3486671192273514 8 -5 0
2787 653 2 0.5564 3.465069986775497 3.449692131968376 -5.0023744965577945 1 1 0
1157 110 1 -1.1128 5.338965218895861 0.1855842163464328 -9.729811216545068 1 0 0
2617 596 2 0.5564 1.0976142363231296 4.133656440303286 -0.39581169795248167 -1 -1 0
2788 653 2 0.5564 3.1067924620129896 2.370930269999282 -6.002277156442231 1 1 0
1529 234 1 -1.1128 0.3462087082982217 1.973618207595007 -4.4444059633466715 4 0 0
1531 234 2 0.5564 0.1628213441018927 2.4473427317376295 -3.633118737303262 4 0 0
2327 500 1 -1.1128 3.6593193779297293 1.7136749895170187 -7.5465502632329535 -1 0 0
2384 519 1 -1.1128 3.1498987631501416 7.012531627313031 -6.754548199388471 -1 3 0
2328 500 2 0.5564 3.6941257639748946 0.8615214443292718 -7.111969565667511 -1 0 0
2097 423 2 0.5564 0.767453609842312 4.517034816409602 -2.632690520041514 4 -2 0
1036 69 2 0.5564 9.772348628907285 6.112042519910186 -7.055472534013679 0 -1 0
2851 674 2 0.5564 13.14619493715203 7.0231975546285925 -3.3429510211314035 0 0 0
1495 222 2 0.5564 3.040537539905327 7.421966971625467 -0.5023511773167175 0 0 0
1087 86 2 0.5564 -1.2134268083595379 7.289735112598953 -5.405714417743925 6 1 0
1081 84 2 0.5564 5.5960992989560925 2.1370387916366465 -1.4560048153932645 5 0 0
2662 611 2 0.5564 5.243380450144769 3.8201510524155937 -8.660233696531474 2 4 0
2833 668 2 0.5564 7.543329412525298 1.3841814339418073 -1.1929178881840499 1 1 0
2361 511 2 0.5564 1.409519584284712 7.518219868160147 -2.215224863853323 1 -2 0
2815 662 2 0.5564 7.427281591473896 1.0814690657412158 -6.187232396230399 0 -1 0
1667 280 1 -1.1128 12.39248587431284 0.020807848557586574 -0.31554314474389955 2 1 0
2076 416 2 0.5564 8.814351674854722 7.373297795769719 -9.126864779801453 -2 2 0
1788 320 2 0.5564 11.958750621612058 4.005176112197199 -2.5788654564194258 -2 -1 0
2444 539 1 -1.1128 10.314214125845858 0.5871678767105656 -6.438756737551797 2 0 0
3110 761 1 -1.1128 6.680130103984635 5.278219032412604 -1.901935755920448 1 -2 0
2660 611 1 -1.1128 5.823074910472914 3.0815785791484496 -8.47396172416162 2 4 0
1034 69 1 -1.1128 9.554364718582054 5.686610368874749 -6.2261802588273865 0 -1 0
1134 102 2 0.5564 8.750065166020574 7.583180877366963 -2.759656141030622 -2 -3 0
2814 662 2 0.5564 7.624435948851371 2.4706410854817067 -5.618703295551199 0 -1 0
2563 578 2 0.5564 5.855930985333025 4.364353779346168 -4.658627684065256 2 1 0
2562 578 2 0.5564 5.5026748498544915 3.413433309450248 -3.534859323059128 2 1 0
1787 320 1 -1.1128 11.381316717456999 3.670685472720749 -3.265101524274648 -2 -1 0
2668 613 2 0.5564 7.514595126980647 4.987697854630898 -6.323575379945584 -3 -5 0
2781 651 2 0.5564 -0.8049675040672559 0.700158770502885 -4.932346259295775 1 1 0
1871 348 1 -1.1128 9.27785272569205 0.4057241854244205 -3.4362084159251856 1 1 0
2831 668 1 -1.1128 8.226727653885392 1.1939977213652497 -0.550239754258433 1 1 0
2667 613 2 0.5564 6.528848418399747 3.9718115589713716 -6.860395056642872 -3 -5 0
1079 84 1 -1.1128 6.171819747563852 2.0876305440978196 -2.2191165279801224 5 0 0
1080 84 2 0.5564 5.777258540105089 1.4150498308266477 -2.774264463129378 5 0 0
1680 284 2 0.5564 9.335734262415011 4.082660241499506 -0.7775097479489604 5 -3 0
1385 186 1 -1.1128 -1.8076879672872508 5.75164112695781 -1.698589354034203 8 -5 0
1872 348 2 0.5564 10.214472951467306 0.4758111461322216 -3.6207684739247137 1 1 0
3111 761 2 0.5564 7.457506201813416 4.723644745281168 -1.9680173829097953 1 -2 0
1075 82 2 0.5564 12.275038415923845 4.018117917802194 -7.6310564444004525 -4 1 0
1965 379 2 0.5564 9.959198093892072 6.929467470139922 -5.214914165692717 3 -5 0
1073 82 1 -1.1128 12.434829209032761 4.460361820636353 -8.46479413121519 -4 1 0
1679 284 1 -1.1128 9.044341905448414 3.6079932469938183 -1.555981602511022 5 -3 0
2813 662 1 -1.1128 7.899652021378496 1.5607510708458994 -5.506507321802485 0 -1 0
1964 379 1 -1.1128 10.242097089986382 7.615416402844206 -4.610203506226925 3 -5 0
1052 75 1 -1.1128 11.191097758235221 3.358524876601661 -6.107430269801498 -2 2 0
1784 319 1 -1.1128 12.181024854012875 0.9640761844218958 -3.2117670774123126 -1 5 0
2666 613 1 -1.1128 6.958859445043471 4.256459203634313 -6.0539828808444565 -3 -5 0
1054 75 2 0.5564 10.986295399229311 2.4303679283041784 -5.994233048455388 -2 2 0
1786 319 2 0.5564 12.081959166468444 0.6184569606360961 -2.324655764350785 -1 5 0
3112 761 2 0.5564 6.081239101141856 4.931758058018015 -2.563393842889003 1 -2 0
2394 522 2 0.5564 -1.4812993759735622 4.546735625957151 -4.5556033167110295 -1 2 0
2386 519 2 0.5564 3.540179540752643 6.523336675037829 -7.478843509224354 -1 3 0
1725 299 2 0.5564 14.106823548643774 4.648583259334944 -1.6196205554063534 -1 -4 0
1785 319 2 0.5564 12.018115339076372 1.903132172398874 -3.12304800992336 -1 5 0
2832 668 2 0.5564 8.992411287184288 0.9619055043685263 -1.0756864449817698 1 1 0
1681 284 2 0.5564 8.757633551711876 2.7569044189733667 -1.224797791127462 5 -3 0
2819 664 1 -1.1128 13.90580327232594 7.763657382529377 -1.9297502627899539 -3 -2 0
2511 561 2 0.5564 7.400839261840682 6.383989002620019 -0.04942585846137699 3 0 0
2720 631 1 -1.1128 4.724882734324052 7.690774535676911 -9.571782744840982 -1 0 0
1443 205 2 0.5564 3.368688628243401 1.2546152298693014 -0.3424338796953112 -2 0 0
1726 299 2 0.5564 13.567287856020268 4.001901637623582 -0.3616064808534328 -1 -4 0
1209 127 2 0.5564 14.084626531743133 1.219811962478682 -6.680392776060398 -2 -2 0
2821 664 2 0.5564 13.259011070322021 7.547889337561635 -1.2579347143373547 -3 -2 0
1704 292 2 0.5564 -1.7823561452469094 1.7620754198580142 -2.0238598973928816 2 1 0
1208 127 1 -1.1128 13.993286656050413 1.0839255728326 -7.623487077556963 -2 -2 0
1947 373 2 0.5564 14.121204812119968 7.564840199211681 -7.261684676516177 -1 2 0
2317 496 2 0.5564 -1.1537266984303223 4.466478275968487 -0.004640986618481991 0 0 0
1102 91 2 0.5564 8.63394516466052 -0.345978332458633 4.390927675780478 -5 1 0
956 43 1 -1.1128 0.8960255197889507 6.316279597630485 8.165682796901095 -3 0 0
1882 351 2 0.5564 3.9310007298695404 2.741234468040832 0.9106107016664238 -5 -3 0
1202 125 1 -1.1128 4.733784542305726 5.023778133020566 4.206021062260261 2 2 0
1444 205 2 0.5564 4.614673965266662 0.5029781619037762 0.07524823260674533 -2 0 0
1459 210 2 0.5564 6.15776519199283 0.6014602097919888 5.01674156416012 -1 0 0
1204 125 2 0.5564 3.965676261858575 4.558946697735704 4.537947125091259 2 2 0
1203 125 2 0.5564 4.608014028013666 5.929003772808425 4.490591452448672 2 2 0
944 39 1 -1.1128 3.089426860131965 0.4261987291803546 5.054881875691478 -3 -1 0
958 43 2 0.5564 0.03150346497947026 6.075441767163907 8.498599075813965 -3 0 0
2941 704 2 0.5564 5.836430430012033 7.366995055971194 9.736869646126854 -1 1 0
2732 635 1 -1.1128 0.9473911151937153 -0.33569495746880257 6.584690820649431 -1 5 0
957 43 2 0.5564 0.9265222124151589 5.942963629549736 7.284807222409958 -3 0 0
1201 124 2 0.5564 3.246550054263276 4.7732292672190955 9.788872388665826 3 2 0
1881 351 2 0.5564 4.748764734596939 3.554818939868642 1.891037558304131 -5 -3 0
1880 351 1 -1.1128 3.847914118376557 3.3795655464617407 1.6190330446691785 -5 -3 0
1750 307 2 0.5564 -0.8278785176015153 6.789835721067725 5.619937464720759 1 -2 0
3060 744 2 0.5564 0.6721586949481715 2.124719737887988 7.0116236574829705 1 0 0
2519 564 1 -1.1128 5.4130541308386455 -0.6820068045126764 1.5962200259507178 -4 -1 0
2177 450 1 -1.1128 8.538577497451318 -0.5126770266257343 6.336404395413798 -4 0 0
945 39 2 0.5564 3.228714086916405 1.3705156122019715 4.98346792165532 -3 -1 0
2886 686 2 0.5564 -0.7099597254556935 -0.16861861656181296 1.1072123309623514 -3 -4 0
2905 692 2 0.5564 6.524079277917614 4.991850258355957 4.66924760384708 0 0 0
1384 185 2 0.5564 13.788924063708071 4.156567762508435 9.601413483177597 0 3 0
946 39 2 0.5564 2.332217274403223 0.33840962696627996 5.633813821086394 -3 -1 0
2857 676 2 0.5564 1.2879897685475246 6.6844634495141735 3.0401553335586993 3 -2 0
1766 313 1 -1.1128 11.429142121634838 1.9677184792220195 1.316197511921569 -3 1 0
1458 210 2 0.5564 4.7913176223602845 0.16385923308393752 4.533811019572944 -1 0 0
2389 520 2 0.5564 0.5888704709100255 4.8472317115368435 1.7949235342493852 1 2 0
2288 487 1 -1.1128 3.8444494057512397 7.765900566130991 4.218082418450556 1 2 0
2388 520 2 0.5564 1.9586104018793464 4.570886753751784 2.3774566571742963 1 2 0
1829 334 1 -1.1128 0.9627204613490766 5.9106215433197145 5.501245306913202 -2 1 0
2887 686 2 0.5564 -1.3950431206589065 0.9763650773766162 1.8224520790748986 -3 -4 0
1831 334 2 0.5564 1.2484534566050387 6.659488655507794 4.977998970402917 -2 1 0
1457 210 1 -1.1128 5.722585428056555 0.11203692588101072 4.318661030893461 -1 0 0
1380 184 2 0.5564 14.118892933574058 2.9777653353556426 7.366098339163954 1 -3 0
2885 686 1 -1.1128 -0.7651166004180823 0.7867834858351415 1.1271223316213312 -3 -4 0
880 17 2 0.5564 7.763521508650984 6.215515454438588 5.975657577426684 3 3 0
2597 590 1 -1.1128 -1.423321414972886 4.42564747774054 3.902313663687614 -2 2 0
1830 334 2 0.5564 1.0243953503761007 5.1640207343285205 4.905413770955409 -2 1 0
2281 484 2 0.5564 -1.531591753935437 1.2593213514753994 9.541400499816472 3 -1 0
2387 520 1 -1.1128 1.3315574433104762 5.27663793357141 2.2194948600299393 1 2 0
1143 105 2 0.5564 13.203725140758802 1.1149006962979033 4.25002953361637 2 -1 0
3061 744 2 0.5564 1.1174543899196177 3.235934454722117 7.93834430816498 1 0 0
2939 704 1 -1.1128 5.851440521183784 6.419103952933422 9.604554476924912 -1 1 0
1661 278 1 -1.1128 13.608356637790582 7.141051187999419 9.068812478862206 -3 0 0
961 44 2 0.5564 8.344920034261131 2.775612374694128 8.329775304166906 0 1 0
2855 676 1 -1.1128 1.2813403556753449 7.521281810546602 3.5048326117342623 3 -2 0
2643 605 2 0.5564 7.363132626585966 5.633715056569627 9.618092330007592 0 -2 0
1100 91 1 -1.1128 8.820088907866245 -0.6132458451651817 3.4908437638584084 -5 1 0
429 2 4 0 7.36814 0 12.736959109302104 0 0 0
3225 799 2 0.5564 8.228000744092315 1.4705645646950651 1.0375538294211661 -2 -4 0
1199 124 1 -1.1128 3.3234347968270463 5.671872316806412 9.468305396253562 3 2 0
2510 561 1 -1.1128 7.34287633439545 6.1154592777463845 0.867506078328526 3 0 0
1663 278 2 0.5564 13.97109207411912 6.299144345582751 9.34421776150397 -3 0 0
1027 66 2 0.5564 10.397857835248907 3.485210791500274 9.669924257206484 2 2 0
2619 597 2 0.5564 9.306372992288564 5.1452234726359505 1.2869560300077112 -2 -1 0
2598 590 2 0.5564 -0.6278027698647827 4.196602010636553 3.421772014808761 -2 2 0
2225 466 1 -1.1128 -1.2512967801057073 5.105316428267332 9.65385385978328 2 -1 0
2903 692 1 -1.1128 7.479944927336808 4.95316404486892 4.701742989887961 0 0 0
2226 466 2 0.5564 -1.4414304519946364 4.168638674875824 9.601727351538425 2 -1 0
481 2 4 0 7.36814 4.254 12.736959109302104 0 0 0
1171 114 2 0.5564 11.362356668853058 1.5460514825238352 8.131545413247059 1 3 0
2620 597 2 0.5564 9.033644507911418 3.6671432822788264 1.4680429425698034 -2 -1 0
879 17 2 0.5564 7.770762421933286 6.038894784305632 7.479203133181471 3 3 0
878 17 1 -1.1128 7.944546452097217 6.681868606385478 6.791732356348369 3 3 0
3226 799 2 0.5564 7.486209397441916 2.234340736004913 2.1137906633976518 -2 -4 0
1935 369 2 0.5564 11.919944509957897 3.412974092848723 5.926095225376339 -2 -1 0
2151 441 2 0.5564 6.5335187914247195 4.729680028544662 1.5598560267320616 1 1 0
990 54 2 0.5564 8.027841726488424 3.8737266463656566 6.042222520277661 -3 4 0
2038 403 2 0.5564 7.160374018233339 2.207606181040142 6.749045183453651 1 0 0
1327 166 2 0.5564 11.104080594388844 1.148474381762315 4.353997009513619 6 3 0
3173 782 1 -1.1128 10.910541678592907 6.178564820775634 5.240734785888645 2 3 0
989 54 1 -1.1128 8.513569644414444 3.2764279009183666 6.6110231892708295 -3 4 0
1379 184 1 -1.1128 13.537508972668787 3.4097067776198977 6.74027736550268 1 -3 0
3175 782 2 0.5564 10.821202916012613 7.018154736544574 4.789802952009795 2 3 0
1325 166 1 -1.1128 11.353291280244953 0.563985214629932 3.6381071576436783 6 3 0
991 54 2 0.5564 9.378132118389944 3.209002897694763 6.205785223481406 -3 4 0
1326 166 2 0.5564 10.582390488575824 0.014226636725143817 3.4977162150322685 6 3 0
1934 369 1 -1.1128 11.013011938965118 3.409440690173615 5.619994937293265 -2 -1 0
2152 441 2 0.5564 6.4058377866258205 4.369775054225516 3.0248006403565872 1 1 0
2904 692 2 0.5564 7.768499974950062 5.642095040807044 4.103125954672431 0 0 0
1936 369 2 0.5564 10.786321226084649 4.335097652137645 5.530514389051411 -2 -1 0
2150 441 1 -1.1128 6.465963418715943 3.9808485353260297 2.15224497285528 1 1 0
440 2 4 0 12.2802 2.836 12.736959109302104 0 0 0
1381 184 2 0.5564 14.006812244448703 4.204121337239459 6.485538590881432 1 -3 0
1106 93 1 -1.1128 7.710942050829494 7.226388330223872 3.299090871341195 4 -1 0
2701 624 2 0.5564 5.124193270731432 -0.5235428575430177 9.347382959649892 3 -2 0
2618 597 1 -1.1128 9.659640436249207 4.279599451686891 1.0817018398295826 -2 -1 0
2036 403 1 -1.1128 6.494447631246329 1.5432895501641724 6.92640744985315 1 0 0
1101 91 2 0.5564 8.624933941537181 0.162379990663392 2.964956919580654 -5 1 0
860 11 1 -1.1128 13.570877223180092 5.745160120277429 4.8863617683837735 -3 2 0
2370 514 2 0.5564 -1.595125298855898 3.389124522274817 6.667904479972061 2 6 0
3224 799 1 -1.1128 8.214508686479235 1.6274067738914535 1.9817205418626869 -2 -4 0
2521 564 2 0.5564 5.618717119122399 -0.18856477831703092 2.3902293668303938 -4 -1 0
2037 403 2 0.5564 6.992713639457715 0.7625367592397989 7.168043179508641 1 0 0
3174 782 2 0.5564 11.808589980444976 5.902319517482288 5.057895393306377 2 3 0
2734 635 2 0.5564 0.42335426857767283 -0.48010061622173883 7.372577401846992 -1 5 0
1662 278 2 0.5564 12.6603159387002 7.027547922810798 9.136396649217442 -3 0 0
490 2 4 0 11.0522 4.963 12.736959109302104 0 0 0
492 2 4 0 12.2802 7.09 12.736959109302104 0 0 0
2644 605 2 0.5564 8.1639686604431 4.45939533372311 9.097007435134836 0 -2 0
1108 93 2 0.5564 8.548600166708288 7.59968014979385 3.5733463250821025 4 -1 0
489 2 4 0 12.2802 4.254 12.736959109302104 0 0 0
862 11 2 0.5564 13.938753831549775 4.982830508272164 4.439422214582538 -3 2 0
1768 313 2 0.5564 11.342582195287852 1.6863016016647525 2.2269908354963874 -3 1 0
2642 605 1 -1.1128 8.241607564602827 5.38423610225729 9.331258013187064 0 -2 0
3150 774 2 0.5564 2.920802028262106 0.41784481681661073 9.33652069074196 -3 1 0
3114 762 2 0.5564 2.0951198833644846 3.0959207473937314 5.583140349537565 2 -1 0
2991 721 2 0.5564 1.444477217084677 2.392344792099921 9.81641464673971 -3 -2 0
2990 721 1 -1.1128 1.3741039027284248 3.3355391758649997 9.669225448561123 -3 -2 0
2992 721 2 0.5564 0.45776990174283816 3.539842163874176 9.855836697045136 -3 -2 0
3113 762 1 -1.1128 2.994343778606237 3.279011630763911 5.3109161605129 2 -1 0
3115 762 2 0.5564 3.4250209474551747 3.5977792013386183 6.104097357787406 2 -1 0
482 2 4 0 6.14012 4.963 12.736959109302104 0 0 0
480 2 4 0 4.9121 7.09 12.736959109302104 0 0 0
483 2 4 0 6.14012 6.381 12.736959109302104 0 0 0
417 2 4 0 0 0 12.736959109302104 0 0 0
418 2 4 0 -1.22802 0.709 12.736959109302104 0 0 0
419 2 4 0 -1.22802 2.127 12.736959109302104 0 0 0
420 2 4 0 0 2.836 12.736959109302104 0 0 0
421 2 4 0 2.45605 0 12.736959109302104 0 0 0
422 2 4 0 1.22802 0.709 12.736959109302104 0 0 0
423 2 4 0 1.22802 2.127 12.736959109302104 0 0 0
424 2 4 0 2.45605 2.836 12.736959109302104 0 0 0
425 2 4 0 4.9121 0 12.736959109302104 0 0 0
426 2 4 0 3.68407 0.709 12.736959109302104 0 0 0
427 2 4 0 3.68407 2.127 12.736959109302104 0 0 0
428 2 4 0 4.9121 2.836 12.736959109302104 0 0 0
430 2 4 0 6.14012 0.709 12.736959109302104 0 0 0
431 2 4 0 6.14012 2.127 12.736959109302104 0 0 0
469 2 4 0 0 4.254 12.736959109302104 0 0 0
470 2 4 0 -1.22802 4.963 12.736959109302104 0 0 0
471 2 4 0 -1.22802 6.381 12.736959109302104 0 0 0
472 2 4 0 0 7.09 12.736959109302104 0 0 0
473 2 4 0 2.45605 4.254 12.736959109302104 0 0 0
474 2 4 0 1.22802 4.963 12.736959109302104 0 0 0
475 2 4 0 1.22802 6.381 12.736959109302104 0 0 0
476 2 4 0 2.45605 7.09 12.736959109302104 0 0 0
477 2 4 0 4.9121 4.254 12.736959109302104 0 0 0
478 2 4 0 3.68407 4.963 12.736959109302104 0 0 0
479 2 4 0 3.68407 6.381 12.736959109302104 0 0 0
2432 535 1 -1.1128 4.756934348915256 3.9367653716651865 7.449295804137653 -2 -4 0
1748 307 1 -1.1128 -1.6512178415186793 7.277999070405293 5.626217127057644 1 -2 0
438 2 4 0 11.0522 0.709 12.736959109302104 0 0 0
3059 744 1 -1.1128 0.733650260669491 3.0777825540130257 7.075835996893574 1 0 0
433 2 4 0 9.82419 0 12.736959109302104 0 0 0
432 2 4 0 7.36814 2.836 12.736959109302104 0 0 0
487 2 4 0 8.59617 6.381 12.736959109302104 0 0 0
1200 124 2 0.5564 2.4796778081040753 5.8517608175110665 9.053636169148154 3 2 0
437 2 4 0 12.2802 0 12.736959109302104 0 0 0
2818 663 2 0.5564 3.816021348468462 4.954642356134401 0.7989624497826834 5 -2 0
484 2 4 0 7.36814 7.09 12.736959109302104 0 0 0
1169 114 1 -1.1128 10.884281306315339 0.7975298499961455 8.488465598859138 1 3 0
2172 448 2 0.5564 11.450200396819119 -0.3483011421449898 6.957937602699386 1 2 0
495 2 4 0 13.5083 6.381 12.736959109302104 0 0 0
442 2 4 0 13.5083 0.709 12.736959109302104 0 0 0
494 2 4 0 13.5083 4.963 12.736959109302104 0 0 0
2434 535 2 0.5564 4.5623277699844085 4.565965709770475 8.14389354082625 -2 -4 0
2433 535 2 0.5564 4.891631210504845 3.1073183303701812 7.907668970575917 -2 -4 0
1026 66 2 0.5564 11.43367098365426 4.388899122238688 9.03562667954014 2 2 0
439 2 4 0 11.0522 2.127 12.736959109302104 0 0 0
2313 495 2 0.5564 10.705036004232587 6.319711476453913 7.582652669520458 3 3 0
1550 241 1 -1.1128 5.5421912906215525 1.3607138955379183 9.348302000607129 0 0 0
436 2 4 0 9.82419 2.836 12.736959109302104 0 0 0
959 44 1 -1.1128 8.447306699891188 2.6153621905466746 9.267895191067245 0 1 0
1767 313 2 0.5564 10.941574810467937 2.7902377786342587 1.2717872180334542 -3 1 0
1170 114 2 0.5564 11.070472521339621 0.8193066616536673 9.427129832815373 1 3 0
1985 386 1 -1.1128 -1.0993758488025944 -0.44530819231980995 8.743739584205542 1 1 0
1552 241 2 0.5564 5.869052279222521 1.5625551680741447 8.471572849641895 0 0 0
486 2 4 0 8.59617 4.963 12.736959109302104 0 0 0
443 2 4 0 13.5083 2.127 12.736959109302104 0 0 0
434 2 4 0 8.59617 0.709 12.736959109302104 0 0 0
1025 66 1 -1.1128 11.339401570987073 3.5678873348635145 9.51862244458018 2 2 0
435 2 4 0 8.59617 2.127 12.736959109302104 0 0 0
1551 241 2 0.5564 6.196428759171784 1.7325839525707087 9.939840483432677 0 0 0
485 2 4 0 9.82419 4.254 12.736959109302104 0 0 0
2312 495 1 -1.1128 10.692980257048138 6.738882146671015 8.443108298355273 3 3 0
491 2 4 0 11.0522 6.381 12.736959109302104 0 0 0
488 2 4 0 9.82419 7.09 12.736959109302104 0 0 0
2314 495 2 0.5564 9.801305180476948 6.603241013376533 8.763659352159117 3 3 0
960 44 2 0.5564 9.067314400622879 1.888025920516521 9.320851415787185 0 1 0
1963 378 2 0.5564 0.9108064389684462 0.5843774201153616 0.34260385600642734 -1 4 0
2940 704 2 0.5564 4.937340746681351 6.149729618984602 9.694502643406464 -1 1 0
2816 663 1 -1.1128 4.035134988339622 5.644713754067482 0.17284282194857395 5 -2 0
1669 280 2 0.5564 12.258917171519645 0.5420360533785785 0.47610989568290074 2 1 0
2512 561 2 0.5564 7.162740487055794 6.925864479821004 1.343978118805376 3 0 0
3149 774 1 -1.1128 1.9681603893667818 0.34445519133403923 9.394138518425454 -3 1 0
2315 496 1 -1.1128 -0.4580968660068988 4.121741642270411 0.5552602152283822 0 0 0
2316 496 2 0.5564 -0.7366854846871896 3.2297223571758353 0.7624361822220617 0 0 0
3151 774 2 0.5564 1.8196158441882504 -0.38557222048337475 9.99515956592533 -3 1 0
2337 503 2 0.5564 13.097664373676201 7.664580719788821 1.0779246778907956 -1 2 0
2856 676 2 0.5564 2.2062452327705335 7.740557387277644 3.6175356920589254 3 -2 0
2817 663 2 0.5564 4.991873650450494 5.674415928281191 0.173508413039322 5 -2 0
105 1 3 0 0 8.508 -13.028967241974486 0 0 0
106 1 3 0 -1.22802 9.217 -13.028967241974486 0 0 0
107 1 3 0 -1.22802 10.635 -13.028967241974486 0 0 0
108 1 3 0 0 11.344 -13.028967241974486 0 0 0
109 1 3 0 2.45605 8.508 -13.028967241974486 0 0 0
110 1 3 0 1.22802 9.217 -13.028967241974486 0 0 0
111 1 3 0 1.22802 10.635 -13.028967241974486 0 0 0
112 1 3 0 2.45605 11.344 -13.028967241974486 0 0 0
113 1 3 0 4.9121 8.508 -13.028967241974486 0 0 0
114 1 3 0 3.68407 9.217 -13.028967241974486 0 0 0
115 1 3 0 3.68407 10.635 -13.028967241974486 0 0 0
116 1 3 0 4.9121 11.344 -13.028967241974486 0 0 0
118 1 3 0 6.14012 9.217 -13.028967241974486 0 0 0
119 1 3 0 6.14012 10.635 -13.028967241974486 0 0 0
157 1 3 0 0 12.762 -13.028967241974486 0 0 0
158 1 3 0 -1.22802 13.471 -13.028967241974486 0 0 0
159 1 3 0 -1.22802 14.889 -13.028967241974486 0 0 0
160 1 3 0 0 15.598 -13.028967241974486 0 0 0
161 1 3 0 2.45605 12.762 -13.028967241974486 0 0 0
162 1 3 0 1.22802 13.471 -13.028967241974486 0 0 0
163 1 3 0 1.22802 14.889 -13.028967241974486 0 0 0
164 1 3 0 2.45605 15.598 -13.028967241974486 0 0 0
165 1 3 0 4.9121 12.762 -13.028967241974486 0 0 0