LAMMPS data file via write_data, version 2 Aug 2023, timestep = 6000000, units = real

3832 atoms
4 atom types
2000 bonds
1 bond types
1000 angles
1 angle types
0 impropers
1 improper types

-1.8420299999999998 30.08661 xlo xhi
-0.709 33.323 ylo yhi
-150 150 zlo zhi

Masses

1 15.9994
2 1.00794
3 12.0107
4 12.0107

Pair Coeffs # lj/cut/tip4p/long

1 0.1852 3.1589
2 0 0
3 0.0859 3.3997
4 0.0859 3.3997

Bond Coeffs # harmonic

1 5000 0.9572

Angle Coeffs # harmonic

1 500 104.52

Atoms # full

1 1 3 0 0 0 -14.519096394668605 0 0 0
2 1 3 0 -1.22802 0.709 -14.519096394668605 0 0 0
3 1 3 0 -1.22802 2.127 -14.519096394668605 0 0 0
4 1 3 0 0 2.836 -14.519096394668605 0 0 0
5 1 3 0 2.45605 0 -14.519096394668605 0 0 0
6 1 3 0 1.22802 0.709 -14.519096394668605 0 0 0
7 1 3 0 1.22802 2.127 -14.519096394668605 0 0 0
8 1 3 0 2.45605 2.836 -14.519096394668605 0 0 0
9 1 3 0 4.9121 0 -14.519096394668605 0 0 0
10 1 3 0 3.68407 0.709 -14.519096394668605 0 0 0
11 1 3 0 3.68407 2.127 -14.519096394668605 0 0 0
12 1 3 0 4.9121 2.836 -14.519096394668605 0 0 0
14 1 3 0 6.14012 0.709 -14.519096394668605 0 0 0
15 1 3 0 6.14012 2.127 -14.519096394668605 0 0 0
53 1 3 0 0 4.254 -14.519096394668605 0 0 0
54 1 3 0 -1.22802 4.963 -14.519096394668605 0 0 0
55 1 3 0 -1.22802 6.381 -14.519096394668605 0 0 0
56 1 3 0 0 7.09 -14.519096394668605 0 0 0
57 1 3 0 2.45605 4.254 -14.519096394668605 0 0 0
58 1 3 0 1.22802 4.963 -14.519096394668605 0 0 0
59 1 3 0 1.22802 6.381 -14.519096394668605 0 0 0
60 1 3 0 2.45605 7.09 -14.519096394668605 0 0 0
61 1 3 0 4.9121 4.254 -14.519096394668605 0 0 0
62 1 3 0 3.68407 4.963 -14.519096394668605 0 0 0
63 1 3 0 3.68407 6.381 -14.519096394668605 0 0 0
64 1 3 0 4.9121 7.09 -14.519096394668605 0 0 0
66 1 3 0 6.14012 4.963 -14.519096394668605 0 0 0
67 1 3 0 6.14012 6.381 -14.519096394668605 0 0 0
2790 654 2 0.5564 1.81397322095616 6.183386263485956 -8.315306091855392 4 1 0
1709 294 1 -1.1128 4.632038858390697 1.7047990863102491 -10.573629277743722 -1 0 0
2789 654 1 -1.1128 2.524018521280803 5.545321637266158 -8.385620918448845 4 1 0
3296 823 1 -1.1128 2.006861237865908 2.290157615613582 -11.032819871887174 -1 -1 0
3297 823 2 0.5564 2.0735225984191934 3.046670255284391 -11.615466671351022 -1 -1 0
1223 132 1 -1.1128 2.244008488457405 5.892356335224052 -11.320590281397347 1 3 0
3798 990 2 0.5564 -1.051137028005627 1.86786401660119 -9.738461142564303 5 5 0
1224 132 2 0.5564 2.782377064430868 6.003772549247711 -10.537022946536938 1 3 0
1710 294 2 0.5564 4.984653084082296 2.590316595806097 -10.661686563602705 -1 0 0
2791 654 2 0.5564 2.0863039486074264 4.722078660049195 -8.602218387893233 4 1 0
3298 823 2 0.5564 2.9118815487572696 2.092272024493635 -10.791951861441687 -1 -1 0
2084 419 1 -1.1128 -0.9723558580240282 4.639525676789373 -8.52988798310184 2 -2 0
3324 832 2 0.5564 1.5320185942022542 0.3139309844775083 -11.247328055505928 0 0 0
2085 419 2 0.5564 -0.18717240223824777 4.092104320344099 -8.52267501611235 2 -2 0
1711 294 2 0.5564 5.363774846382299 1.1313427696041287 -10.801544108499744 -1 0 0
1483 218 2 0.5564 1.3593152505084902 2.7651513879992016 -9.655627687075619 -6 2 0
1481 218 1 -1.1128 1.2651611897811468 3.1760649088080477 -8.796256939087678 -6 2 0
1482 218 2 0.5564 1.3159129635509714 2.449004952849538 -8.175741327452899 -6 2 0
2149 440 2 0.5564 13.93201028281089 0.7138941864210756 -11.236171108229211 -1 3 0
3323 832 1 -1.1128 1.3863876935754287 -0.5764773337252292 -10.927644860748194 0 0 0
3469 880 2 0.5564 5.738439303269513 6.298329976197875 -4.844281266454657 2 2 0
1994 389 1 -1.1128 4.103937693411773 1.607078267753 -7.841008459751397 0 -1 0
1980 384 2 0.5564 0.20551287521739806 7.220814409774149 -9.301527718907169 -1 1 0
3107 760 1 -1.1128 6.457236889553233 -0.33769399747032985 -10.517575176382445 0 0 0
3127 766 2 0.5564 6.110246760901737 1.0939773648021476 -0.6709646768150092 3 0 0
1605 259 2 0.5564 9.221929609067667 0.9606250640560723 -10.150786908182507 5 2 0
2957 710 1 -1.1128 7.014997824395761 0.3127485154026498 -7.813598354612069 -2 0 0
2959 710 2 0.5564 6.407821219890359 -0.0024392145712532204 -8.483095155351066 -2 0 0
2609 594 1 -1.1128 -0.7237918368175976 5.892122758256843 -2.4019607600099895 -1 4 0
1996 389 2 0.5564 3.198589436568852 1.353149520774895 -7.6618536641444654 0 -1 0
1284 152 2 0.5564 8.657333702656642 4.138256100931798 -4.9008021855846415 -1 1 0
3775 982 2 0.5564 1.5825821483539002 -0.4059907635369339 -7.804302980613275 -1 -1 0
1995 389 2 0.5564 4.175843795571585 1.5821568201148146 -8.795179338301832 0 -1 0
2589 587 2 0.5564 4.073112265245641 5.31100822467145 -7.99750903460997 -4 -3 0
2973 715 2 0.5564 7.710890131857648 5.451008642889195 -0.5551727042815308 0 2 0
3125 766 1 -1.1128 6.449476295581822 0.19913123673475958 -0.6507066082251982 3 0 0
3300 824 2 0.5564 -0.30689569544311746 7.513774552882916 -5.612160450470374 -1 4 0
2524 565 2 0.5564 12.424215279126532 7.2746484251059025 -4.1219976026704055 -1 0 0
1205 126 1 -1.1128 -0.7049057983911865 2.5523920663852646 -5.941310766498461 0 1 0
2955 709 2 0.5564 0.7358287432845894 3.45592051283028 -0.43028159077234546 0 3 0
1594 255 2 0.5564 7.0959537021059775 -0.6984500249254678 -2.169617761390282 -2 2 0
3121 764 2 0.5564 9.764223123893395 7.3197970930342295 -8.718992870924485 0 2 0
1606 259 2 0.5564 8.870300970282026 1.8267771607044998 -11.341599203994662 5 2 0
3306 826 2 0.5564 7.763597028296667 4.388907713196524 -10.755939069962563 -2 2 0
3307 826 2 0.5564 9.161471169426168 3.9414342354996204 -10.384975259401207 -2 2 0
3305 826 1 -1.1128 8.259797993008041 3.6278103574852008 -10.454696087328253 -2 2 0
13 1 3 0 7.36814 0 -14.519096394668605 0 0 0
16 1 3 0 7.36814 2.836 -14.519096394668605 0 0 0
17 1 3 0 9.82419 0 -14.519096394668605 0 0 0
18 1 3 0 8.59617 0.709 -14.519096394668605 0 0 0
19 1 3 0 8.59617 2.127 -14.519096394668605 0 0 0
20 1 3 0 9.82419 2.836 -14.519096394668605 0 0 0
21 1 3 0 12.2802 0 -14.519096394668605 0 0 0
22 1 3 0 11.0522 0.709 -14.519096394668605 0 0 0
23 1 3 0 11.0522 2.127 -14.519096394668605 0 0 0
24 1 3 0 12.2802 2.836 -14.519096394668605 0 0 0
26 1 3 0 13.5083 0.709 -14.519096394668605 0 0 0
27 1 3 0 13.5083 2.127 -14.519096394668605 0 0 0
65 1 3 0 7.36814 4.254 -14.519096394668605 0 0 0
68 1 3 0 7.36814 7.09 -14.519096394668605 0 0 0
69 1 3 0 9.82419 4.254 -14.519096394668605 0 0 0
70 1 3 0 8.59617 4.963 -14.519096394668605 0 0 0
71 1 3 0 8.59617 6.381 -14.519096394668605 0 0 0
72 1 3 0 9.82419 7.09 -14.519096394668605 0 0 0
73 1 3 0 12.2802 4.254 -14.519096394668605 0 0 0
74 1 3 0 11.0522 4.963 -14.519096394668605 0 0 0
75 1 3 0 11.0522 6.381 -14.519096394668605 0 0 0
76 1 3 0 12.2802 7.09 -14.519096394668605 0 0 0
78 1 3 0 13.5083 4.963 -14.519096394668605 0 0 0
79 1 3 0 13.5083 6.381 -14.519096394668605 0 0 0
3528 900 2 0.5564 -0.9232489867399201 6.121614763285903 -11.244042391446348 -4 4 0
923 32 1 -1.1128 13.881825784687218 5.5266922047999785 -0.460267716676353 0 -1 0
2298 490 2 0.5564 6.218578947977984 6.614673662796521 -0.8601972374838808 1 2 0
2580 584 2 0.5564 11.858957045661613 4.732589554883646 -10.24001964039796 2 3 0
2491 554 2 0.5564 5.622951805802666 6.027884838149115 -11.084610840408576 1 -1 0
2489 554 1 -1.1128 5.691693692679616 5.2285849425502855 -10.562472201624223 1 -1 0
2490 554 2 0.5564 5.608210632069394 5.525868686524245 -9.656444560243033 1 -1 0
2579 584 1 -1.1128 11.068797113695652 4.368274128306574 -10.638960577953252 2 3 0
3120 764 2 0.5564 8.71820940583068 6.235168350288222 -8.865045254713037 0 2 0
2581 584 2 0.5564 10.993024828068066 4.821544522605178 -11.478624990730914 2 3 0
924 32 2 0.5564 13.037816842066377 5.128325266953481 -0.6728332971819029 0 -1 0
3529 900 2 0.5564 0.4511652181934558 6.7525920520604945 -11.175122259337954 -4 4 0
2588 587 1 -1.1128 4.986288746118299 5.451619806025151 -7.747371309201059 -4 -3 0
3119 764 1 -1.1128 9.334125811230013 6.765759094911373 -9.370369213263478 0 2 0
1285 152 2 0.5564 9.6981236996951 4.740584957698779 -5.820503326217785 -1 1 0
1034 69 1 -1.1128 12.49092984624097 1.894336348385607 -10.546960448502485 3 3 0
1341 171 2 0.5564 10.202530087146393 -0.2355212733504728 -8.10954292442369 2 3 0
1035 69 2 0.5564 12.421125164838777 1.6647374570683138 -9.620329668945866 3 3 0
2974 715 2 0.5564 8.65454187167576 6.214905854602326 -1.459539410365862 0 2 0
1151 108 1 -1.1128 13.060513875651068 0.6289317425363883 -7.706866989996477 -1 5 0
1153 108 2 0.5564 12.43198635479586 -0.0921240441028594 -7.6713165472669695 -1 5 0
2408 527 1 -1.1128 13.580040909207165 4.253703332305067 -8.881335180828664 -1 -3 0
2363 512 1 -1.1128 8.359736180337581 3.970910485804661 -3.204300842671785 2 0 0
3319 830 2 0.5564 6.327394239613707 7.258555194981926 -7.631097091655505 1 1 0
2867 680 1 -1.1128 0.27100899476260504 2.075126153256609 -1.4095237228978053 -1 -2 0
3744 972 2 0.5564 3.9921974794083743 5.860576052380087 -0.8896805535958703 1 6 0
1225 132 2 0.5564 2.6828977311346796 6.417301722852574 -11.989948459460392 1 3 0
1340 171 1 -1.1128 9.80080099870847 0.6141682677692887 -8.290856244656302 2 3 0
3733 968 2 0.5564 -1.6875119563791874 -0.3633487271222563 -6.5927910214194 -1 1 0
3527 900 1 -1.1128 -0.4791424859618972 6.951262957414519 -11.068859577007268 -4 4 0
3719 964 1 -1.1128 -1.1691182336954196 -0.595295517057812 -2.9282870164442376 -3 0 0
3673 948 2 0.5564 5.333381932066416 2.049934210355974 -6.447955010425367 -2 1 0
1030 67 2 0.5564 6.706818467519804 1.8441728961240829 -4.597421239572042 1 3 0
1109 94 1 -1.1128 1.5021611044478458 1.095633812749503 -6.833748187831262 -3 1 0
2868 680 2 0.5564 -0.4003432648168498 2.3539521150442613 -2.0322399096157784 -1 -2 0
2258 477 1 -1.1128 0.8543641989536622 4.799010810544278 -4.505839416854503 2 0 0
2086 419 2 0.5564 -1.1915441580014474 4.732549480178752 -9.457001200272112 2 -2 0
2353 508 2 0.5564 4.232592488475912 3.3140191722442456 -5.326884094647242 3 -2 0
2259 477 2 0.5564 0.6117701187781234 5.478971909875583 -5.134356409059939 2 0 0
2351 508 1 -1.1128 3.611730341041436 3.886631524716903 -4.876462799133912 3 -2 0
2352 508 2 0.5564 3.234091604374693 3.3377336713445978 -4.189197733481103 3 -2 0
2610 594 2 0.5564 -0.3480830065803651 5.290295806835192 -3.0445196765773814 -1 4 0
3725 966 1 -1.1128 2.7057484820515594 -0.13175998361848373 -4.447519191779844 0 -1 0
3732 968 2 0.5564 -1.8090655239222642 0.8485981404362726 -5.693733754953605 -1 1 0
3671 948 1 -1.1128 5.778486070732528 2.7870356189365486 -6.029868363957234 -2 1 0
2260 477 2 0.5564 1.7998049256197362 4.697197862537499 -4.615418068015944 2 0 0
3743 972 1 -1.1128 3.2265054448060706 5.2861671485317485 -0.8875340356583792 1 6 0
3745 972 2 0.5564 2.7922089795084593 5.462053991251745 -1.7222091507934887 1 6 0
3727 966 2 0.5564 3.555415999851729 -0.533294814920219 -4.629363941245106 0 -1 0
1110 94 2 0.5564 1.9118934272594759 0.675467158250916 -6.077565928492017 -3 1 0
1111 94 2 0.5564 0.6021484919696842 1.2653799811533577 -6.555547470769994 -3 1 0
2958 710 2 0.5564 7.017093694009986 1.2639912610939417 -7.9202123800896835 -2 0 0
3672 948 2 0.5564 6.408674621149622 3.0891381940768787 -6.683954704510577 -2 1 0
2152 441 2 0.5564 4.101746851148119 7.362910346221774 -5.901800061346303 0 -5 0
2151 441 2 0.5564 3.335375487707947 7.074537173415876 -7.175146333176989 0 -5 0
3690 954 2 0.5564 13.49371703134713 7.727668862165649 -10.285380658346991 0 2 0
2409 527 2 0.5564 13.522430862222603 4.139406496729757 -7.932731696825367 -1 -3 0
1604 259 1 -1.1128 9.138748315598622 0.9392096506945752 -11.104127233466919 5 2 0
3108 760 2 0.5564 7.335853315843789 0.006313840027670032 -10.678586303546473 0 0 0
1207 126 2 0.5564 -1.140075036843561 3.16411019440085 -6.535163333653199 0 1 0
1029 67 2 0.5564 7.58229506304909 0.7871156328702694 -3.9586199855241997 1 3 0
3720 964 2 0.5564 -1.749109410096815 0.14254069357075613 -2.740026958282812 -3 0 0
1962 378 2 0.5564 0.4687624925880114 7.22427497769247 -0.6405013098312111 -3 -3 0
1979 384 1 -1.1128 0.6530477955354734 7.557552305730756 -8.525283976038997 -1 1 0
1036 69 2 0.5564 12.104063032803259 2.7677733603019514 -10.607587399312317 3 3 0
3511 894 2 0.5564 11.95747203828943 -0.3868209329168372 -10.65474353600185 6 6 0
956 43 1 -1.1128 2.9123648009796703 2.096627605270002 -2.6081648201193945 -1 0 0
957 43 2 0.5564 2.9090821379692113 1.354000444730735 -3.2120931892104925 -1 0 0
1283 152 1 -1.1128 8.796265829063298 4.420208715752851 -5.804922082931542 -1 1 0
958 43 2 0.5564 2.119621940517668 1.9830720380280447 -2.0838564984524606 -1 0 0
2321 498 1 -1.1128 13.725675573777762 6.958594300543331 -8.641176976159041 3 6 0
1335 169 2 0.5564 12.53809639971789 2.877977277002801 -5.1566419750730885 -1 1 0
2568 580 2 0.5564 10.87407681351471 1.1674038770815556 -2.367367151409927 -1 -3 0
2425 532 2 0.5564 7.988395583544119 3.248885397486725 -8.807067994091243 3 -1 0
3132 768 2 0.5564 10.73529634826305 2.0211626264649403 -4.82525453120718 -1 -3 0
1558 243 2 0.5564 10.647162022440758 5.045886194696016 -1.2061733135093573 3 -7 0
2297 490 1 -1.1128 5.334284569748633 6.93354941995344 -0.6797099751144339 1 2 0
1217 130 1 -1.1128 5.449595875233086 2.4806017634960518 -1.5400292565887015 -2 2 0
3730 967 2 0.5564 7.669600334583814 5.808291484474048 -5.751318647628189 0 3 0
2926 699 2 0.5564 11.720969182366629 5.766669068453766 -5.473126957635334 3 -2 0
2424 532 2 0.5564 8.146602010003306 3.600900710427048 -7.343183165592362 3 -1 0
1557 243 2 0.5564 10.222659676711867 4.521020000708581 -2.561241191148864 3 -7 0
2639 604 1 -1.1128 12.031276036127457 3.0873299989727667 -0.1786994758594664 -4 -1 0
1206 126 2 0.5564 -0.3343417443293522 3.1069796099530254 -5.254763012214633 0 1 0
2181 451 2 0.5564 10.20338547101535 7.280953247542512 -10.6378652896058 2 5 0
1218 130 2 0.5564 5.90428808563455 2.138502193631204 -2.3097422252014863 -2 2 0
2590 587 2 0.5564 5.212121982605646 4.684032416031063 -7.221975451795982 -4 -3 0
1219 130 2 0.5564 4.520204180228927 2.3929505714565353 -1.7516518385196578 -2 2 0
2640 604 2 0.5564 11.700991693292869 2.3248457016938833 -0.6538458706799131 -4 -1 0
1556 243 1 -1.1128 10.50667803231472 5.317745721021884 -2.113140211443547 3 -7 0
3728 967 1 -1.1128 7.248164831888545 6.6664320999216695 -5.704216318635667 0 3 0
3126 766 2 0.5564 7.219938352930541 0.24731015845544838 -0.084756577593955 3 0 0
3797 990 1 -1.1128 -1.713912461246112 1.9948277351954073 -10.417313439759646 5 5 0
2611 594 2 0.5564 -1.5355344283450112 6.19861179664639 -2.806156759601576 -1 4 0
2925 699 2 0.5564 11.00609296491307 6.312874417139983 -6.690709370174536 3 -2 0
1334 169 1 -1.1128 11.983872050599281 2.804097543785547 -5.933568917081087 -1 1 0
3722 965 1 -1.1128 13.876850793995628 2.876700608681161 -3.896877020444018 -2 1 0
3467 880 1 -1.1128 4.919160244893468 6.352818864212263 -4.352296036551785 2 2 0
2924 699 1 -1.1128 11.425744618536408 5.5227467122488285 -6.350382002267894 3 -2 0
2569 580 2 0.5564 10.596565078971611 0.5406458432900627 -1.017531090443885 -1 -3 0
1732 301 2 0.5564 -1.7636292103400235 0.24618731086491413 -11.029136516048245 3 -2 0
3133 768 2 0.5564 10.150630229533814 0.7283307196477428 -4.2973848881748635 -1 -3 0
2567 580 1 -1.1128 11.30945769841847 0.7667477840517531 -1.6149376374302222 -1 -3 0
2423 532 1 -1.1128 7.681674490735932 3.0075000573008452 -7.93305817464063 3 -1 0
2365 512 2 0.5564 7.86456463735571 4.709355182522949 -2.8497062279672156 2 0 0
1152 108 2 0.5564 12.717487898781894 1.276863211615547 -7.091438257465643 -1 5 0
1336 169 2 0.5564 11.692351692187914 3.6992930206320933 -6.106409333585731 -1 1 0
2523 565 2 0.5564 11.692979492027069 6.202187446444233 -3.3428815860663783 -1 0 0
3131 768 1 -1.1128 10.276801169876451 1.649895814701151 -4.071477716312358 -1 -3 0
2972 715 1 -1.1128 7.7514941177694885 5.9036094519213975 -1.397632922172566 0 2 0
1028 67 1 -1.1128 7.040696175628248 1.54842035882802 -3.750491447372522 1 3 0
2522 565 1 -1.1128 12.423954550345666 6.333630226787824 -3.946731485556815 -1 0 0
3729 967 2 0.5564 7.581575806845755 7.053427974805253 -4.89470814616581 0 3 0
2364 512 2 0.5564 7.7175078767891545 3.265089721952564 -3.279091294313755 2 0 0
3299 824 1 -1.1128 -0.1733975310649804 6.644958240040333 -5.991071652985221 -1 4 0
2869 680 2 0.5564 -0.1626917210847321 1.415220588997736 -0.8685383156449827 -1 -2 0
2322 498 2 0.5564 14.067765126635624 7.184647750851765 -7.776243026784521 3 6 0
2299 490 2 0.5564 5.2138331479919096 7.663612813636522 -1.286944944541407 1 2 0
2323 498 2 0.5564 13.76292955667663 6.0026033683218625 -8.671650374013993 3 6 0
3301 824 2 0.5564 0.18720730349922068 6.815455007266035 -6.861203684222263 -1 4 0
3468 880 2 0.5564 4.498456381737253 5.504452298634191 -4.492001974093863 2 2 0
1342 171 2 0.5564 8.903653129642036 0.5292147627828669 -7.96814566039902 2 3 0
2023 398 2 0.5564 14.084186540918246 5.993783253262834 -3.9621546373772545 1 -6 0
3510 894 2 0.5564 10.573041794093802 -0.40592434337688915 -11.26702040465446 6 6 0
1575 249 2 0.5564 7.5894725851723805 7.464084546435013 -2.659971256407851 3 0 0
2150 441 1 -1.1128 3.3053306057292327 7.601112795006896 -6.376367200122984 0 -5 0
1730 301 1 -1.1128 -1.6478889234906802 -0.6683610391842376 -10.771372831320223 3 -2 0
1282 151 2 0.5564 12.175881530077792 7.731445955758225 -7.886000368660941 0 3 0
1618 263 2 0.5564 6.502797297288058 7.722309006151883 -10.709328316649604 -3 5 0
2180 451 1 -1.1128 10.825540500935285 7.547479859165294 -11.314710109960508 2 5 0
3419 864 1 -1.1128 -1.0202937239556327 -0.5844720240586341 -8.193663180683908 3 -3 0
1450 207 2 0.5564 12.498660658338778 -0.6103565665841941 -1.7641624094477713 -1 0 0
3002 725 1 -1.1128 2.2999982764843963 1.7919649808808682 1.8498015014088742 0 2 0
3234 802 2 0.5564 4.534426152658882 3.1596733799916117 6.634314585175156 -2 -1 0
3662 945 1 -1.1128 2.420140172168048 3.0346388892622143 8.83347742961731 -3 2 0
3664 945 2 0.5564 3.22407561055006 2.535595312121908 8.68899381352895 -3 2 0
3663 945 2 0.5564 1.880519900637699 2.4664803589793403 9.383239533067488 -3 2 0
2195 456 1 -1.1128 4.251894268431932 7.028796887483143 1.8729487617242917 -3 4 0
3235 802 2 0.5564 5.472738536094458 3.678739584930184 5.565653901272945 -2 -1 0
3451 874 2 0.5564 -1.762637171729323 0.009927476925836667 0.9388436577183473 1 -1 0
3059 744 1 -1.1128 11.52533993749446 0.2927668722393669 5.214632591133557 -4 3 0
1534 235 2 0.5564 2.644154442988116 6.140000231967727 6.762988212481542 2 -2 0
3398 857 1 -1.1128 0.1664379580367951 0.12086253708524765 7.825224494176882 0 3 0
2232 468 2 0.5564 -1.182151638481638 2.1974766422283736 9.669399512620778 3 -1 0
1532 235 1 -1.1128 2.261227703522989 5.566879381748579 6.098808524259579 2 -2 0
3004 725 2 0.5564 1.866469397554078 2.4350116298487774 1.2887530398173082 0 2 0
3233 802 1 -1.1128 4.722688061978644 3.933354553339198 6.103082139896089 -2 -1 0
907 26 2 0.5564 -1.6129285151270918 7.175550612829023 1.304845753325643 3 1 0
3399 857 2 0.5564 0.1965584195001792 0.19426850376227556 6.8713150549421425 0 3 0
1533 235 2 0.5564 2.8776373897875143 4.838164686457849 6.026370356045104 2 -2 0
2231 468 1 -1.1128 -0.6742698933577476 2.7135295288714043 9.04331340050705 3 -1 0
2196 456 2 0.5564 4.873882971341833 6.578018307727491 2.444054149258735 -3 4 0
1500 224 2 0.5564 1.3340353447406312 0.39650604922784155 2.482523986972797 -1 1 0
1781 318 1 -1.1128 6.3205802441512295 5.7085615749626895 3.0269497767507296 4 -1 0
2872 681 2 0.5564 12.704710342329344 1.3970941236338312 13.299607338115628 0 0 0
3003 725 2 0.5564 3.2261544143118877 1.8556021179723388 1.6165274913207717 0 2 0
3450 874 2 0.5564 -0.25810993741611626 -0.021292189050332366 1.1041254798100122 1 -1 0
1499 224 1 -1.1128 0.8734949489208105 -0.42565017578595643 2.6504336619780617 -1 1 0
3030 734 2 0.5564 -0.9042704741927101 5.739146398224224 6.384392296741784 -1 6 0
2593 588 2 0.5564 6.366838047741875 1.042579447671773 7.15776679956584 -4 -5 0
2307 493 2 0.5564 7.052612161207708 0.39605949667448237 9.152656164426512 -1 -2 0
2188 453 2 0.5564 0.5964696794614475 6.196430199025822 1.9467684581212708 -1 -3 0
1330 167 2 0.5564 13.71229819678885 5.642599026387342 5.6098189721866785 -2 1 0
433 2 4 0 9.82419 0 16.74620659931785 0 0 0
3031 734 2 0.5564 0.5331939366441895 5.482164884739595 5.984944000815527 -1 6 0
3646 939 2 0.5564 1.4027702769138841 4.128517998091552 3.467109192434241 -1 0 0
481 2 4 0 7.36814 4.254 16.74620659931785 0 0 0
3136 769 2 0.5564 0.17751175620187604 -0.3160850097777849 4.382698466058507 -3 -2 0
1162 111 2 0.5564 1.5009459868702217 2.6931255039958177 5.514689965521916 0 -1 0
1446 206 2 0.5564 12.713273287429065 7.167268905939918 4.033281890663317 -2 -4 0
3645 939 2 0.5564 1.237559592464604 2.6318483146416094 3.310327638679886 -1 0 0
2186 453 1 -1.1128 -0.1268681982138499 6.046052016202177 1.3381625381107465 -1 -3 0
3786 986 2 0.5564 2.3906734167541197 5.835791525167895 3.823625570730894 0 -2 0
3029 734 1 -1.1128 -0.3398457883957645 5.625747057550416 5.619671385459102 -1 6 0
3644 939 1 -1.1128 0.9434598104171638 3.3747636963591603 3.837409959275448 -1 0 0
2169 447 2 0.5564 2.853628204253647 -0.2282542442683484 4.029354451250844 1 -1 0
2187 453 2 0.5564 0.12780374755542592 5.261958963377573 0.8517749170178686 -1 -3 0
1160 111 1 -1.1128 1.969452204415389 2.1922382563279013 6.182408069109089 0 -1 0
3135 769 2 0.5564 -0.5436562455033614 0.9204192872848728 4.875516702140027 -3 -2 0
2170 447 2 0.5564 2.9703319221625013 0.8020746382389181 5.13239537190653 1 -1 0
3195 789 2 0.5564 2.033766801718405 -0.04788118730835919 8.112160277500921 -4 1 0
1161 111 2 0.5564 1.7675482691593474 2.63998885243699 7.00398405806721 0 -1 0
3831 1001 2 0.5564 4.7898115957802245 0.9588941373217899 3.2505618895795525 -2 -5 0
3785 986 1 -1.1128 2.163701463812085 5.9008797520612015 2.89600543694488 0 -2 0
2340 504 2 0.5564 13.242918463594906 1.5522993433370198 8.55164266660586 5 -2 0
2438 537 1 -1.1128 -1.8123887385947661 6.597631965401768 12.14909017035339 3 -1 0
484 2 4 0 7.36814 7.09 16.74620659931785 0 0 0
3787 986 2 0.5564 2.874098843709873 6.413689597580777 2.510526516120861 0 -2 0
2940 704 2 0.5564 -0.2253304625693732 7.5709167777848645 5.216612674455495 5 -1 0
1082 85 1 -1.1128 12.478320798498622 4.250339360177501 2.4460055766087185 3 -4 0
1403 192 1 -1.1128 9.342878064718505 0.486903787150643 0.10625256497154711 0 -1 0
2871 681 2 0.5564 13.384365047618914 0.9662924847127927 12.01727560397655 0 0 0
926 33 1 -1.1128 14.088500948604981 6.066359041740311 10.396111649914218 -1 3 0
1828 333 2 0.5564 4.330573845295523 1.015042313510698 8.150846595792018 2 2 0
3830 1001 1 -1.1128 5.463858799013866 1.440997846982045 2.771532315178598 -2 -5 0
1084 85 2 0.5564 12.240471383118518 4.894006666912301 1.7786573199334237 3 -4 0
3832 1001 2 0.5564 5.6539051921807575 2.1998500724021532 3.3231281252792253 -2 -5 0
1782 318 2 0.5564 6.6301849118609715 5.145262395042412 2.3176725828520137 4 -1 0
1783 318 2 0.5564 7.116391610014699 6.0991563372500295 3.3879928262380776 4 -1 0
3619 930 2 0.5564 10.519102960511095 0.6154009939087374 6.8515662901816015 -3 -2 0
3696 956 2 0.5564 7.548383055461554 1.8158157447355119 4.846122626254152 -2 -2 0
1405 192 2 0.5564 9.508720563476084 1.3987125439961496 0.3456960275639369 0 -1 0
2880 684 2 0.5564 10.656456696135695 6.027526865458134 1.5300246576450782 -4 -2 0
2879 684 1 -1.1128 10.915737753775257 5.924198916992113 0.6144213805603875 -4 -2 0
2915 696 1 -1.1128 12.185688172489657 0.37827865701086943 9.173124503397617 1 -1 0
851 8 1 -1.1128 9.243941595869199 4.24457358930245 4.1271816751419514 3 -1 0
3294 822 2 0.5564 10.216304309827883 3.635893911207278 0.7956861752901836 -1 2 0
853 8 2 0.5564 8.529221902954664 3.608195116636825 4.1064308342989095 3 -1 0
3295 822 2 0.5564 9.605550381264845 3.0620774795193753 2.056483557032838 -1 2 0
3717 963 2 0.5564 10.198826164506563 5.8646673612983315 3.481542156882692 -2 -3 0
3716 963 1 -1.1128 10.551030066940488 6.727782170498031 3.2642368104464383 -2 -3 0
852 8 2 0.5564 9.938861132606801 3.8089854910540373 4.620724456882475 3 -1 0
1412 195 1 -1.1128 7.13460319608743 4.2235407969645635 0.818138119908029 6 0 0
1414 195 2 0.5564 7.908421516435683 3.673728874402134 0.695062309024092 6 0 0
3293 822 1 -1.1128 9.573297846100306 2.9964431610800895 1.1020810652416229 -1 2 0
3718 963 2 0.5564 9.880245340211582 7.342503061622508 3.561562079909987 -2 -3 0
1580 251 1 -1.1128 11.359345564521098 3.325150005726529 5.609092408377941 0 -5 0
1582 251 2 0.5564 12.209999060330187 3.7253552266429777 5.789255334353324 0 -5 0
2339 504 1 -1.1128 13.904878592158061 2.191134719385897 8.287199061156088 5 -2 0
3697 956 2 0.5564 7.491541306649706 2.8803100157122876 5.921074466729808 -2 -2 0
3617 930 1 -1.1128 10.055157805061212 0.529483757395288 7.6843968309977875 -3 -2 0
3695 956 1 -1.1128 7.030107519273333 2.5631140985223158 5.144736311199095 -2 -2 0
3618 930 2 0.5564 9.137578768041154 0.41465865903210636 7.437219344632063 -3 -2 0
3163 778 2 0.5564 6.40345167436076 -0.2861051171830626 2.4063031151682734 1 0 0
1445 206 1 -1.1128 13.491757216458835 6.619813494359039 3.9308658899245015 -2 -4 0
3449 874 1 -1.1128 -0.9473530620093527 0.24314247911456435 0.4948210608605631 1 -1 0
1404 192 2 0.5564 9.565272107070198 -0.01191210019350938 0.8923540965183101 0 -1 0
2591 588 1 -1.1128 7.111955265263063 0.464625108478486 7.322095005887258 -4 -5 0
1826 333 1 -1.1128 4.903099684064848 1.7816795181832557 8.1775471604742 2 2 0
3310 827 2 0.5564 8.4174835644671 3.4596775189462714 7.975008730974002 7 0 0
3308 827 1 -1.1128 8.615680993176314 3.7114041148494286 7.073020031692294 7 0 0
3309 827 2 0.5564 9.285843499230591 3.0885015300758103 6.79176123902212 7 0 0
1337 170 1 -1.1128 13.124837511680502 1.6356139089141004 3.377083647149718 1 0 0
438 2 4 0 11.0522 0.709 16.74620659931785 0 0 0
1338 170 2 0.5564 13.06185518603511 2.577737256329701 3.220018688417953 1 0 0
2341 504 2 0.5564 13.45160874932201 3.0336071107090232 8.319110746625345 5 -2 0
2592 588 2 0.5564 6.90080948842785 -0.33978943418493485 6.848208403803049 -4 -5 0
3400 857 2 0.5564 -0.08590055320263337 0.9940938737316409 8.125267023131515 0 3 0
2306 493 1 -1.1128 7.276610216461451 0.5073678531863356 10.076597405844753 -1 -2 0
1790 321 1 -1.1128 9.770141238477338 5.861778784068187 10.339601264574515 3 0 0
1413 195 2 0.5564 6.536795165163555 3.9562613127578 0.11998377677044038 6 0 0
3248 807 1 -1.1128 3.6018316648026323 7.051568374994058 8.082675835550415 -1 1 0
3249 807 2 0.5564 3.667505467073199 6.319899366590781 8.696341375017035 -1 1 0
3250 807 2 0.5564 4.428920962002565 7.035862880432079 7.601105131322277 -1 1 0
2881 684 2 0.5564 10.836086388213818 6.802321857450048 0.24187843570642661 -4 -2 0
2386 519 2 0.5564 0.476393374646872 1.2326818469709568 11.441584889347645 -1 -2 0
3088 753 2 0.5564 2.8452525906968638 -0.060288623612712214 13.924203121524295 4 2 0
3376 849 2 0.5564 8.508009984765785 0.3262258270478894 3.351286625183431 2 -1 0
2584 585 2 0.5564 5.507364998692435 5.711046205189582 6.713319372499553 1 -2 0
2582 585 1 -1.1128 6.002301054854595 6.524238675971942 6.6133710843362135 1 -2 0
3060 744 2 0.5564 11.755083976905693 -0.6210053105375725 5.0459013418487695 -4 3 0
2530 567 2 0.5564 -1.6705128179998416 3.396892807967347 12.982356409834233 1 -1 0
2385 519 2 0.5564 1.6732956856723895 2.131375564809744 11.668897645941604 -1 -2 0
2994 722 2 0.5564 4.6246732300851345 5.451501960214893 13.792106389416439 0 1 0
2995 722 2 0.5564 3.5466196210226477 6.394540099484756 13.301825749802777 0 1 0
2443 538 2 0.5564 2.0933111641713444 2.625582984608385 13.501883582548277 3 2 0
2442 538 2 0.5564 2.1617600011127083 4.103757256251156 13.182178268114653 3 2 0
2441 538 1 -1.1128 1.6522341868519335 3.3134224750978287 13.003321521970918 3 2 0
3087 753 2 0.5564 4.020140624142537 0.7956035268533345 13.501140034447719 4 2 0
1339 170 2 0.5564 13.77525595357922 1.5515049151019769 4.0743039523817615 1 0 0
3086 753 1 -1.1128 3.1687659855979815 0.8405023356797238 13.936314820800945 4 2 0
879 17 2 0.5564 6.297072143755026 0.36510565115307014 13.6208826748523 1 4 0
986 53 1 -1.1128 5.088478112558132 2.435973291073383 10.913008889161755 2 -1 0
3226 799 2 0.5564 4.32252707197973 4.296135914194925 9.981868757055807 4 1 0
988 53 2 0.5564 5.2455123132912185 2.065580446682947 11.781561350898208 2 -1 0
987 53 2 0.5564 5.7218418490565925 3.149780646766503 10.838420399273758 2 -1 0
3224 799 1 -1.1128 4.277900491908234 5.2383497667190575 10.144578292958974 4 1 0
3225 799 2 0.5564 3.647498205288729 5.3288949212332355 10.859159996922578 4 1 0
878 17 1 -1.1128 5.943622107521739 1.225115277717261 13.39353150262945 1 4 0
2384 519 1 -1.1128 1.351301396438615 1.427534449126714 11.105725884414932 -1 -2 0
880 17 2 0.5564 6.11230855989515 1.76558256431143 14.165329197118 1 4 0
1874 349 1 -1.1128 -0.3788400362392275 4.361126006028778 11.522480677186547 5 1 0
1875 349 2 0.5564 -0.5338877083371899 3.8889967153255607 10.704381162178938 5 1 0
1792 321 2 0.5564 9.863486478689959 5.727806191250557 9.396430425980215 3 0 0
1876 349 2 0.5564 0.3839533204478914 3.9297986253444614 11.907626888721511 5 1 0
2993 722 1 -1.1128 3.6901569821915796 5.492820595009709 13.589114506482302 0 1 0
2439 537 2 0.5564 -1.1889589259274156 6.0518148866686134 11.669867936893802 3 -1 0
1959 377 2 0.5564 6.773203052426507 5.4544862915233665 14.570866666162841 3 3 0
1960 377 2 0.5564 7.038201632206534 5.587766235091093 13.086310172847636 3 3 0
1958 377 1 -1.1128 6.590146553956478 6.014622893377498 13.81656635869417 3 3 0
2300 491 1 -1.1128 -1.6033623259329333 1.1114996388924727 10.977505388289593 -1 5 0
1791 321 2 0.5564 10.602975902594958 6.2479312669871385 10.610729552738842 3 0 0
489 2 4 0 12.2802 4.254 16.74620659931785 0 0 0
2197 456 2 0.5564 4.642742687283432 6.972950828170368 1.000967963554133 -3 4 0
2916 696 2 0.5564 11.404330250582374 0.2828950715602029 8.628501381610159 1 -1 0
1083 85 2 0.5564 12.358559076389337 4.710508055032774 3.2767491323583893 3 -4 0
1866 346 2 0.5564 10.21609843189406 0.02211333499496947 13.269440720398535 0 3 0
3374 849 1 -1.1128 8.946900993064256 1.0253330885219145 3.835908219350179 2 -1 0
3596 923 1 -1.1128 12.508721000771107 4.570239508308918 8.914248358649488 -2 1 0