LAMMPS data file via write_data, version 2 Aug 2023, timestep = 6250000, units = real

3832 atoms
4 atom types
2000 bonds
1 bond types
1000 angles
1 angle types
0 impropers
1 improper types

-1.8420299999999998 30.08661 xlo xhi
-0.709 33.323 ylo yhi
-150 150 zlo zhi

Masses

1 15.9994
2 1.00794
3 12.0107
4 12.0107

Pair Coeffs # lj/cut/tip4p/long

1 0.1852 3.1589
2 0 0
3 0.0859 3.3997
4 0.0859 3.3997

Bond Coeffs # harmonic

1 5000 0.9572

Angle Coeffs # harmonic

1 500 104.52

Atoms # full

1 1 3 0 0 0 -14.519096394668605 0 0 0
2 1 3 0 -1.22802 0.709 -14.519096394668605 0 0 0
3 1 3 0 -1.22802 2.127 -14.519096394668605 0 0 0
4 1 3 0 0 2.836 -14.519096394668605 0 0 0
5 1 3 0 2.45605 0 -14.519096394668605 0 0 0
6 1 3 0 1.22802 0.709 -14.519096394668605 0 0 0
7 1 3 0 1.22802 2.127 -14.519096394668605 0 0 0
8 1 3 0 2.45605 2.836 -14.519096394668605 0 0 0
9 1 3 0 4.9121 0 -14.519096394668605 0 0 0
10 1 3 0 3.68407 0.709 -14.519096394668605 0 0 0
11 1 3 0 3.68407 2.127 -14.519096394668605 0 0 0
12 1 3 0 4.9121 2.836 -14.519096394668605 0 0 0
14 1 3 0 6.14012 0.709 -14.519096394668605 0 0 0
15 1 3 0 6.14012 2.127 -14.519096394668605 0 0 0
53 1 3 0 0 4.254 -14.519096394668605 0 0 0
54 1 3 0 -1.22802 4.963 -14.519096394668605 0 0 0
55 1 3 0 -1.22802 6.381 -14.519096394668605 0 0 0
56 1 3 0 0 7.09 -14.519096394668605 0 0 0
57 1 3 0 2.45605 4.254 -14.519096394668605 0 0 0
58 1 3 0 1.22802 4.963 -14.519096394668605 0 0 0
59 1 3 0 1.22802 6.381 -14.519096394668605 0 0 0
60 1 3 0 2.45605 7.09 -14.519096394668605 0 0 0
61 1 3 0 4.9121 4.254 -14.519096394668605 0 0 0
62 1 3 0 3.68407 4.963 -14.519096394668605 0 0 0
63 1 3 0 3.68407 6.381 -14.519096394668605 0 0 0
64 1 3 0 4.9121 7.09 -14.519096394668605 0 0 0
66 1 3 0 6.14012 4.963 -14.519096394668605 0 0 0
67 1 3 0 6.14012 6.381 -14.519096394668605 0 0 0
965 46 1 -1.1128 1.0756297058141957 1.4817776729791583 -11.632767265995357 0 0 0
966 46 2 0.5564 0.46808242602660927 1.6223786019673843 -10.906574876766328 0 0 0
967 46 2 0.5564 0.9385335560968953 2.233453104905436 -12.209326587857205 0 0 0
1738 303 2 0.5564 -0.9412609491895422 2.1901410596140534 -9.028048582839292 -2 4 0
1736 303 1 -1.1128 -0.42670674654504925 1.4792191506831942 -9.410221790681236 -2 4 0
1737 303 2 0.5564 0.36764991321172075 1.4445431521698302 -8.877279492506343 -2 4 0
1084 85 2 0.5564 -1.3883873593222884 0.11996377699630152 -9.373095920262966 4 -4 0
2519 564 1 -1.1128 1.826542551575634 1.9161815405610638 -7.850608417668805 3 0 0
1972 381 2 0.5564 11.386351538167403 0.056771633054883315 -10.356387513724354 -1 1 0
1726 299 2 0.5564 4.154945810859449 4.033230442014797 -7.592136247165817 2 0 0
3034 735 2 0.5564 6.028649247257335 2.5683204659252734 -6.773275465021334 0 1 0
3288 820 2 0.5564 11.461966617939627 3.335249517593156 -0.6218541049568355 5 -1 0
3032 735 1 -1.1128 6.481427094294943 1.9181326263730611 -6.236168649242969 0 1 0
1195 122 2 0.5564 0.925877486302066 5.716613168152134 -8.92217066160349 -6 -3 0
1579 250 2 0.5564 4.397186362738697 5.251099156013796 -10.355502502064422 0 3 0
1725 299 2 0.5564 4.838295057698029 3.564076134328188 -8.858955075295045 2 0 0
1577 250 1 -1.1128 3.797083144934867 5.898843119304136 -9.985993891669068 0 3 0
3441 871 2 0.5564 3.9329168951007056 1.110583542854892 -9.985307693859333 -1 3 0
3033 735 2 0.5564 6.7528720557635475 1.2414876882886343 -6.856412400041725 0 1 0
3442 871 2 0.5564 2.7916811786152596 1.1868683045780564 -10.977104089657168 -1 3 0
3440 871 1 -1.1128 3.7309817980868973 1.0130877042669255 -10.915871909250363 -1 3 0
1724 299 1 -1.1128 4.805213914890913 3.409372768350226 -7.914918384428299 2 0 0
3567 913 2 0.5564 -0.23971296353009833 6.249236239914021 -6.4339334638505274 2 2 0
3566 913 1 -1.1128 -0.9555578976176398 6.680176564088934 -5.96693428150785 2 2 0
956 43 1 -1.1128 10.193136452070902 0.7683199719839615 -0.15455212570125412 -2 0 0
2511 561 2 0.5564 -1.7933526728561127 6.779966166215761 -11.144317515519468 -2 0 0
1193 122 1 -1.1128 1.077703494430456 6.265437598749352 -8.152773143026264 -6 -3 0
1282 151 2 0.5564 0.6571350117654515 5.927993816389162 -11.630523990941729 1 3 0
3199 790 2 0.5564 2.231267082433528 5.532380036264455 -7.299024133449914 3 3 0
1280 151 1 -1.1128 0.8941291634624774 5.082494672108073 -11.249473759225209 1 3 0
3415 862 2 0.5564 4.890945214528851 2.8468423026249132 -0.37139682068584245 -6 -3 0
2393 522 1 -1.1128 10.55030126347498 6.946398787936853 -6.403917158539485 -1 -3 0
1760 311 1 -1.1128 3.669521755281021 -0.09867209229977625 -6.083953471328297 1 1 0
2185 452 2 0.5564 -0.8977830188293578 4.369661294643823 -10.844967071752276 4 0 0
3717 963 2 0.5564 14.041861620264635 6.911040523562258 -7.969979209728579 -3 -3 0
2538 570 2 0.5564 8.5571005581743 0.8539835209043504 -3.6629460664676166 2 1 0
1739 304 1 -1.1128 7.979293259548722 5.249717374962736 -3.2834983602496033 -2 1 0
2828 667 1 -1.1128 5.080221040674944 3.4026875726450077 -10.754454241596655 -1 -1 0
2829 667 2 0.5564 4.859711672969436 2.518385614537239 -11.047058954588717 -1 -1 0
2127 433 2 0.5564 7.718543335203542 6.909879922447634 -8.491324242579703 4 3 0
3530 901 1 -1.1128 13.259590509903939 3.2654985800779985 -7.0881810206673395 0 4 0
2830 667 2 0.5564 6.029862344417333 3.4604744471289184 -10.859681123166906 -1 -1 0
1872 348 2 0.5564 7.94887447878154 4.102385213753239 -11.497849342701993 5 3 0
1871 348 1 -1.1128 7.696930040282732 3.2433040679878418 -11.159122364113374 5 3 0
1873 348 2 0.5564 8.27119002518573 3.10444007025972 -10.406011952373408 5 3 0
2825 666 1 -1.1128 8.428801921934394 0.43531643382676216 -11.417674815305162 5 2 0
2827 666 2 0.5564 9.312411249569386 0.12606719250711168 -11.218096146989097 5 2 0
1446 206 2 0.5564 7.9763725597730195 -0.2447859392813856 -9.680001658702276 -2 -4 0
1071 81 2 0.5564 6.074825478217947 6.3012410687833205 -6.365356510064258 2 0 0
13 1 3 0 7.36814 0 -14.519096394668605 0 0 0
16 1 3 0 7.36814 2.836 -14.519096394668605 0 0 0
17 1 3 0 9.82419 0 -14.519096394668605 0 0 0
18 1 3 0 8.59617 0.709 -14.519096394668605 0 0 0
19 1 3 0 8.59617 2.127 -14.519096394668605 0 0 0
20 1 3 0 9.82419 2.836 -14.519096394668605 0 0 0
21 1 3 0 12.2802 0 -14.519096394668605 0 0 0
22 1 3 0 11.0522 0.709 -14.519096394668605 0 0 0
23 1 3 0 11.0522 2.127 -14.519096394668605 0 0 0
24 1 3 0 12.2802 2.836 -14.519096394668605 0 0 0
26 1 3 0 13.5083 0.709 -14.519096394668605 0 0 0
27 1 3 0 13.5083 2.127 -14.519096394668605 0 0 0
65 1 3 0 7.36814 4.254 -14.519096394668605 0 0 0
68 1 3 0 7.36814 7.09 -14.519096394668605 0 0 0
69 1 3 0 9.82419 4.254 -14.519096394668605 0 0 0
70 1 3 0 8.59617 4.963 -14.519096394668605 0 0 0
71 1 3 0 8.59617 6.381 -14.519096394668605 0 0 0
72 1 3 0 9.82419 7.09 -14.519096394668605 0 0 0
73 1 3 0 12.2802 4.254 -14.519096394668605 0 0 0
74 1 3 0 11.0522 4.963 -14.519096394668605 0 0 0
75 1 3 0 11.0522 6.381 -14.519096394668605 0 0 0
76 1 3 0 12.2802 7.09 -14.519096394668605 0 0 0
78 1 3 0 13.5083 4.963 -14.519096394668605 0 0 0
79 1 3 0 13.5083 6.381 -14.519096394668605 0 0 0
1970 381 1 -1.1128 11.936939650698397 0.6369952725776229 -9.830625801609065 -1 1 0
1971 381 2 0.5564 12.6930392407452 0.100207834861032 -9.593120480790683 -1 1 0
1761 311 2 0.5564 2.7693200220674434 -0.4237638503977839 -6.0704050410335775 1 1 0
1274 149 1 -1.1128 9.177778344188399 5.5738428850414845 -8.432128162483787 1 3 0
1445 206 1 -1.1128 7.805667454102385 -0.29044198879861155 -8.73925338744613 -2 -4 0
1492 221 2 0.5564 9.539242567705557 6.598807523486819 -11.430300262813287 -4 0 0
2826 666 2 0.5564 8.489043923556736 1.388755428881982 -11.358031469617389 5 2 0
1275 149 2 0.5564 9.651095820120895 6.21964019970997 -7.907582099199262 1 3 0
1276 149 2 0.5564 9.124697629480465 4.80069430179148 -7.870297677439489 1 3 0
2627 600 1 -1.1128 10.409984573763507 3.048157671145699 -9.677658734668512 4 2 0
2628 600 2 0.5564 11.122036712562814 3.6870178175510393 -9.644832650785698 4 2 0
2629 600 2 0.5564 10.849435006734554 2.204108492246133 -9.781093197157087 4 2 0
2425 532 2 0.5564 13.51383417796252 1.7842399101870177 -10.696128656668897 3 -1 0
3664 945 2 0.5564 12.10989667587159 6.7081896140806085 -3.233821612866514 -3 2 0
3532 901 2 0.5564 12.650339640428474 3.706434855254139 -7.680313913015688 0 4 0
3755 976 1 -1.1128 12.213445542992838 4.951222324829561 -9.223127866127342 -2 3 0
3756 976 2 0.5564 11.580665864201073 5.6681208500504585 -9.179793261626699 -2 3 0
2126 433 1 -1.1128 7.284522935446063 7.434778599954746 -9.163888171046873 4 3 0
3531 901 2 0.5564 12.98683286322531 3.54235190698276 -6.213431637388736 0 4 0
2732 635 1 -1.1128 11.739129768410871 -0.152476771980241 -4.081961632460973 1 -1 0
2113 428 2 0.5564 7.691224567212609 4.519725142116252 -0.09777018983781664 3 4 0
1392 188 2 0.5564 1.226284170721239 -0.5200689856514191 -11.98371398221834 5 0 0
3757 976 2 0.5564 12.994950806867926 5.344099162741344 -9.611883622676965 -2 3 0
3776 983 1 -1.1128 3.890469259019751 -0.15374688297460506 -1.7443300058143236 -2 0 0
2520 564 2 0.5564 2.0502447772727996 1.2928521664631496 -7.159486983487389 3 0 0
2120 431 1 -1.1128 -0.11739726526254377 1.6977601749354096 -0.4024297911178003 -4 -1 0
2489 554 1 -1.1128 2.1868731003148194 6.914775103984775 -2.6699810187026447 1 -1 0
2128 433 2 0.5564 7.462055821310073 6.970820542839402 -9.982094179871561 4 3 0
1490 221 1 -1.1128 8.76593457826421 6.178699107601915 -11.053820578363089 -4 0 0
3413 862 1 -1.1128 4.625711590664469 3.2446499225709835 -1.2006327651631759 -6 -3 0
1281 151 2 0.5564 1.8022060811781262 5.192445710083863 -10.967443431702973 1 3 0
1395 189 2 0.5564 13.627996682491698 4.912713318938192 -2.5292455091544728 0 -4 0
3019 730 2 0.5564 -1.3604097738361267 7.383435188999983 -4.138325112100107 0 -1 0
1072 81 2 0.5564 5.680207476312931 5.819244736054605 -4.985555617424498 2 0 0
2521 564 2 0.5564 2.53916982248566 2.555102065723578 -7.837402631184818 3 0 0
1789 320 2 0.5564 8.309324585140223 7.008359864012961 -2.300050344481286 -2 -1 0
2313 495 2 0.5564 1.2775536029147596 2.6064157604014895 -1.153068890652844 -1 0 0
2394 522 2 0.5564 10.800310545835826 7.00035973362352 -5.481520962352689 -1 -3 0
2641 604 2 0.5564 0.9172837428164964 1.5893431430983838 -5.487083165202568 -3 -1 0
2639 604 1 -1.1128 0.8267026492971875 0.6392993325777081 -5.413308055374229 -3 -1 0
2823 665 2 0.5564 -1.1510010588858663 3.367976137828013 -7.039700376136748 1 4 0
3197 790 1 -1.1128 2.7696730278114496 4.796088007317226 -7.00880812817651 3 3 0
3198 790 2 0.5564 3.1527883387413675 5.090010132215372 -6.182331040731139 3 3 0
1097 90 1 -1.1128 0.2040112071375285 4.912920148746931 -2.8663549038796163 -3 -2 0
1261 144 2 0.5564 0.04486131590045562 3.804757575039977 -4.765402316225703 -2 2 0
1259 144 1 -1.1128 -0.09967716394701062 3.596268363977548 -5.688372266361939 -2 2 0
1260 144 2 0.5564 0.759551622693951 3.704172190343908 -6.096190044449481 -2 2 0
3414 862 2 0.5564 3.734332187086804 2.9270620840806956 -1.3448988032040337 -6 -3 0
1099 90 2 0.5564 -0.5955229185466707 5.0826995811908695 -2.3682037356344696 -3 -2 0
1098 90 2 0.5564 0.6890526879692844 5.737325777939852 -2.8299686705699965 -3 -2 0
3547 906 2 0.5564 4.014733122737073 1.4317489407595843 -4.87410282252929 0 0 0
3545 906 1 -1.1128 4.193495302101701 1.9832753879390648 -4.112462687318429 0 0 0
2537 570 1 -1.1128 8.759256475030412 0.9312706270344795 -4.595360640833542 2 1 0
2864 679 1 -1.1128 4.010093606132535 4.855278744864662 -4.638885751568 -2 -1 0
2865 679 2 0.5564 4.155212740324143 5.1774981341524295 -3.749307453207774 -2 -1 0
2866 679 2 0.5564 4.198029734249907 3.9180727684238663 -4.588302709770066 -2 -1 0
2490 554 2 0.5564 3.001378166376358 6.4517934312371725 -2.4738659786310793 1 -1 0
3546 906 2 0.5564 5.147992716696509 2.048432528137104 -4.0820681291469665 0 0 0
1309 160 2 0.5564 4.905386164319987 5.030198110735645 -1.8855301572510292 -1 1 0
2640 604 2 0.5564 0.3227550002318503 0.507921191576767 -4.610181976626413 -3 -1 0
1308 160 2 0.5564 5.278179620510006 6.493251518467359 -1.774191743636398 -1 1 0
1070 81 1 -1.1128 6.420172581018742 6.167962703317006 -5.482629672649549 2 0 0
3568 913 2 0.5564 -1.558054982585382 6.959462293668711 -6.656301328215805 2 2 0
1307 160 1 -1.1128 4.74283504225098 5.885200385161695 -2.2840089942508883 -1 1 0
2539 570 2 0.5564 7.953821734807136 1.2673632965410544 -4.988490499632362 2 1 0
3777 983 2 0.5564 3.9736061626700194 0.5132023052147806 -2.4258716793318484 -2 0 0
1768 313 2 0.5564 13.579944284669784 0.019353370447908344 -7.221963871337875 -2 1 0
2491 554 2 0.5564 2.3683542015475827 7.38568356093589 -3.483333521117286 1 -1 0
2314 495 2 0.5564 1.53297775168054 3.881517803540494 -1.9281583290548634 -1 0 0
2312 495 1 -1.1128 1.9554934793175849 3.2558731641815224 -1.33970336242118 -1 0 0
1491 221 2 0.5564 9.055882365873872 5.866226158568989 -10.196775018324683 -4 0 0
2151 441 2 0.5564 10.361945246120607 3.005721304266187 -7.783410535482114 0 -5 0
2798 657 1 -1.1128 -0.5596285211141211 0.24039287256347433 -2.9284273500016234 -2 0 0
1130 101 1 -1.1128 12.767259025359717 5.894193174697777 -5.120981683918563 -1 -3 0
3702 958 2 0.5564 11.145632408899571 4.695663591912993 -4.689980091528348 3 2 0
2734 635 2 0.5564 12.204616579840248 0.11153233894659388 -4.8755981235703105 1 -1 0
2112 428 2 0.5564 7.895326243329084 4.111513509611603 -1.541239309242365 3 4 0
1767 313 2 0.5564 13.102321731733872 1.4068479251900996 -6.849631342790202 -2 1 0
1131 101 2 0.5564 13.165199791101532 6.277172420906723 -5.902777746407381 -1 -3 0
3287 820 1 -1.1128 12.018047268147733 2.573854377321139 -0.7870306939449238 5 -1 0
2887 686 2 0.5564 10.956188403320319 5.443570177870516 -0.7088630595482305 -2 4 0
3334 835 2 0.5564 5.881971330492611 2.8768856096717053 -2.4277121765704797 2 -4 0
3333 835 2 0.5564 6.640468325069659 3.6419063439134693 -3.4913509624445993 2 -4 0
3075 749 2 0.5564 7.546041712413775 1.521199323865752 -2.0428249749076155 -2 0 0
3332 835 1 -1.1128 6.5962597415672946 2.7891357261322356 -3.0588473772050953 2 -4 0
1741 304 2 0.5564 7.511087563868779 5.620257733435844 -4.031639532262882 -2 1 0
3703 958 2 0.5564 10.128246517446716 3.783922889088016 -5.3423207864621745 3 2 0
3642 938 2 0.5564 6.545335767026795 -0.31549773652746577 -11.50503572163185 -2 2 0
1447 206 2 0.5564 6.851866349976833 -0.25582508551277394 -8.666464979314279 -2 -4 0
1578 250 2 0.5564 3.7424379260403704 5.67313158036145 -9.057392947493737 0 3 0
3643 938 2 0.5564 5.040399533459847 -0.3332863666847384 -11.341491109549366 -2 2 0
2822 665 1 -1.1128 -1.6969456447070355 3.22673909351431 -7.8131560241935984 1 4 0
3662 945 1 -1.1128 12.159444054897035 6.390325956826026 -2.332300790543233 -3 2 0
2150 441 1 -1.1128 9.764024201709494 3.114024849297365 -7.043820411703493 0 -5 0
1396 189 2 0.5564 13.84062509462641 3.6543741756687274 -3.3436580012630057 0 -4 0
1132 101 2 0.5564 13.499515032728086 5.4984958352571915 -4.648267569329962 -1 -3 0
1740 304 2 0.5564 8.783524343507738 4.890131699942408 -3.6578547054005037 -2 1 0
2733 635 2 0.5564 10.819587357630084 0.03643802450049164 -4.269007421082575 1 -1 0
3729 967 2 0.5564 12.733697753885632 2.3932551466140954 -2.425543393879678 -1 3 0
2152 441 2 0.5564 9.667326765922953 2.232978896670225 -6.682380991166291 0 -5 0
3730 967 2 0.5564 12.362766933576669 1.2694178387652784 -3.369627707254732 -1 3 0
1766 313 1 -1.1128 12.939573173227778 0.4791367168726365 -6.679047543493219 -2 1 0
2121 431 2 0.5564 -0.5647461528305282 1.1897960130670415 -1.0792490225956537 -4 -1 0
3728 967 1 -1.1128 12.978355572777076 1.9942460603778975 -3.26050851925709 -1 3 0
3778 983 2 0.5564 2.9497213756991614 -0.20958279602412275 -1.576674499259509 -2 0 0
3074 749 1 -1.1128 8.074029061236855 0.7355818928464248 -1.9004549210172916 -2 0 0
3701 958 1 -1.1128 10.297814818615478 4.277445378388407 -4.539877722330764 3 2 0
2111 428 1 -1.1128 8.251621203482149 3.9865881889945993 -0.6616480300872721 3 4 0
957 43 2 0.5564 9.576796941464194 0.8093373366542669 -0.8857668893593096 -2 0 0
3423 865 2 0.5564 -0.4071335508554252 -0.6185939853605966 -6.207605141991433 0 -4 0
3663 945 2 0.5564 11.56287916033554 6.958127658496188 -1.8445060662686512 -3 2 0
3289 820 2 0.5564 11.442343495025534 1.8217177932262418 -0.6488716538077364 5 -1 0
2297 490 1 -1.1128 5.027750521360382 7.777971758665949 -7.484638618669005 1 2 0
3076 749 2 0.5564 7.565223252195724 0.213668179787522 -1.2800038475278623 -2 0 0
1194 122 2 0.5564 1.042973888795634 7.161810085670694 -8.486752223602926 -6 -3 0
2687 620 1 -1.1128 5.008745983610492 0.09566779318820057 -8.265885287404428 1 3 0
2688 620 2 0.5564 4.641370894400061 0.16626991278772013 -7.3848157443792815 1 3 0
2799 657 2 0.5564 0.06525255471976375 -0.3897970770484252 -2.569795393331436 -2 0 0
2886 686 2 0.5564 9.777494671347092 4.644572962502468 -0.19488055477044777 -2 4 0
2800 657 2 0.5564 -1.3806926411573743 -0.24710760139064245 -2.994975023562533 -2 0 0
2183 452 1 -1.1128 -1.8330206666040993 4.261074516143144 -10.672421599394685 4 0 0
1448 207 1 -1.1128 1.7921755980078853 4.599895902859442 1.2574925501160135 0 0 0
2377 516 2 0.5564 3.1680442468438854 6.637331134668521 5.460401620303632 2 1 0
2375 516 1 -1.1128 3.3583001395237853 5.864332938785359 4.928882897452343 2 1 0
1546 239 2 0.5564 0.2352555809958106 6.507173488751325 4.84203043463697 1 -3 0
2376 516 2 0.5564 2.616766515906739 5.278914492274241 5.082655339474342 2 1 0
1450 207 2 0.5564 1.860358044990589 4.115673341231351 0.4346224436775167 0 0 0
1545 239 2 0.5564 -0.5755038418729664 5.2576449938866086 5.112665570920044 1 -3 0
1544 239 1 -1.1128 0.31762407002131254 5.559275690121195 4.9466124038635515 1 -3 0
1449 207 2 0.5564 2.6974235129430952 4.7030808721508235 1.550942385752848 0 0 0
2308 493 2 0.5564 -1.4218286574588135 2.4657245743313934 13.763226726733896 0 -2 0
1521 231 2 0.5564 7.959099397530537 -0.022400283503202424 2.3425362630346664 1 0 0
3536 903 1 -1.1128 3.071907743434068 0.0753598643710872 4.924414902212111 2 -3 0
2797 656 2 0.5564 -1.2570584503158215 2.8113323012266305 3.350795742198658 2 1 0
881 18 1 -1.1128 5.1747487813293045 1.7771711556063188 0.9423026714857575 1 3 0
1944 372 2 0.5564 4.492800376210109 4.025994444854978 2.7893604557927816 3 2 0
1945 372 2 0.5564 4.5613337144850465 5.53685500513373 2.8564244285344063 3 2 0
847 6 2 0.5564 1.0411067229146909 3.441570358230987 2.4769992028559544 2 -3 0
846 6 2 0.5564 0.9733330243429589 4.327412138314821 3.7027984611430895 2 -3 0
845 6 1 -1.1128 0.7187414819148487 3.463741596668293 3.378010175165048 2 -3 0
2441 538 1 -1.1128 7.826857288036701 1.2035442538814773 13.209544768539295 2 2 0
3537 903 2 0.5564 3.8380081098875247 -0.23249702557512386 5.408714725826027 2 -3 0
1185 119 2 0.5564 1.3631619593354454 3.205765180563821 4.944947562768188 1 1 0
1184 119 1 -1.1128 1.880222321730999 3.029928991899374 5.73105349960803 1 1 0
1458 210 2 0.5564 13.744566726037267 4.82599446661162 3.727427413178789 3 -3 0
2608 593 2 0.5564 -0.5551151990278167 7.120336407305233 1.743623733681146 0 1 0
1783 318 2 0.5564 5.035596770572831 2.544054683839082 4.388471450742865 4 -1 0
1186 119 2 0.5564 2.7114982250010122 2.689549484211971 5.400365936140259 1 1 0
1594 255 2 0.5564 5.19599990940405 5.407337171108551 6.137047503942654 -2 2 0
494 2 4 0 13.5083 4.963 16.74620659931785 0 0 0
3227 800 1 -1.1128 9.588354777110247 -0.26570523627718706 8.240822469309352 -1 1 0
883 18 2 0.5564 5.558275190954806 0.9924036715802225 0.5507935290890946 1 3 0
1565 246 1 -1.1128 8.698747659983013 1.4855267229676552 6.121246235890947 2 3 0
3012 728 2 0.5564 0.18626053647120464 0.029175140763929068 0.6071405560277029 1 -1 0
3681 951 2 0.5564 6.5104759829536585 6.609408319624496 0.9557337488670586 1 1 0
1975 382 2 0.5564 12.2634653671718 0.08166909635901595 2.4955737324556666 -1 1 0
2607 593 2 0.5564 0.9180310528024682 7.148793476946479 1.3958804877349624 0 1 0
1936 369 2 0.5564 13.775772425127572 7.747359782710069 6.907992921343447 -2 2 0
1426 199 2 0.5564 3.826551550268803 -0.694558866200089 1.8557017517385308 -2 -2 0
1943 372 1 -1.1128 4.616600601882038 4.803046865728782 2.244296003877863 3 2 0
1524 232 2 0.5564 4.19314885177277 0.4259418650018683 11.680389212415301 3 2 0
1670 281 1 -1.1128 -1.5807805309982166 5.927942821509576 9.038039241904947 2 0 0
1782 318 2 0.5564 3.909851978622746 1.8566476763468527 3.645459824619912 4 -1 0
1400 191 1 -1.1128 13.517368758517826 1.717583500334645 13.285655195182839 -3 -1 0
3437 870 1 -1.1128 2.3127390803852963 7.725059892879494 6.615915551867185 0 1 0
487 2 4 0 8.59617 6.381 16.74620659931785 0 0 0
1500 224 2 0.5564 -0.47592086249030985 7.221348819645718 12.67553615610466 -1 1 0
3256 809 2 0.5564 5.853675511055339 0.08333234626272881 6.671084383964072 -1 -2 0
1821 331 2 0.5564 0.46870436540222693 -0.5117584130645304 10.1396461345068 2 0 0
3282 818 2 0.5564 8.742649886553902 1.6658578707938727 1.0787986542700752 -4 1 0
486 2 4 0 8.59617 4.963 16.74620659931785 0 0 0
1241 138 1 -1.1128 5.149354438730781 0.12581095836398093 13.503034000218717 3 -1 0
1566 246 2 0.5564 9.340679833685996 1.5833728426369404 5.417976522007888 2 3 0
882 18 2 0.5564 5.836078429185305 2.0835313649833047 1.5628014765656164 1 3 0
1781 318 1 -1.1128 4.209032602482849 2.7175456330523087 3.9379973108893798 4 -1 0
951 41 2 0.5564 1.2770834462264893 1.620488683498749 6.607416638149664 -5 -1 0
1623 265 2 0.5564 13.688181081895651 4.103670395336073 13.717069790703032 1 2 0
1424 199 1 -1.1128 3.0537479619375048 -0.1567801362046655 1.6830725529107016 -2 -2 0
3067 746 2 0.5564 7.299175401745976 5.636862126427301 4.9912992744477735 1 1 0
3065 746 1 -1.1128 8.020925737697123 5.750321914329549 4.372883987416884 1 1 0
3066 746 2 0.5564 7.600649594625305 6.045237337745946 3.565031696768384 1 1 0
3013 728 2 0.5564 1.5306783803756676 -0.4516523615460955 1.1103704469869666 1 -1 0
2714 629 1 -1.1128 -1.023937846665553 4.547274898083109 1.2546692366090606 -1 2 0
2208 460 2 0.5564 7.010572933316874 1.8956816391380866 5.7674988140655135 3 -2 0
490 2 4 0 11.0522 4.963 16.74620659931785 0 0 0
2673 615 2 0.5564 8.750928022222547 7.4433616574711055 4.8254481383308425 -2 1 0
1822 331 2 0.5564 1.4194088821323882 -0.37623693114028195 11.309983429259995 2 0 0
3283 818 2 0.5564 8.675294850795234 1.588723147510571 2.589232139214823 -4 1 0
1252 141 2 0.5564 13.265281037830412 -0.012541924385370811 10.729177708972793 -1 -1 0
1904 359 1 -1.1128 10.321899301852122 4.4856411897484065 4.965845002035261 -3 1 0
1905 359 2 0.5564 9.516536326745054 4.995983882402309 4.881153951462716 -3 1 0
3711 961 2 0.5564 10.267547013758263 2.7947377856745663 4.026705259754341 2 3 0
3710 961 1 -1.1128 10.120523216933742 1.8714814474027466 3.821236366102065 2 3 0
1401 191 2 0.5564 13.233595941413512 1.3556801420874787 12.44617253520301 -3 -1 0
1143 105 2 0.5564 5.505843741530383 7.450488717189361 12.842790237278907 1 2 0
3712 961 2 0.5564 10.966707308935074 1.5592496719290017 3.500733117726215 2 3 0
3079 750 2 0.5564 10.82171585464462 5.2817774765540415 1.9202890408460265 -1 -1 0
1974 382 2 0.5564 12.885286615403261 1.4530533995950414 2.652243593295751 -1 1 0
1906 359 2 0.5564 10.688559300794822 4.753952749357596 5.808341963145096 -3 1 0
1560 244 2 0.5564 13.362094955266848 1.9166964105893958 5.603592691007888 2 -1 0
2207 460 1 -1.1128 6.093933704092031 2.1533544387671366 5.865546966289974 3 -2 0
2209 460 2 0.5564 6.116358098625147 2.8940919012414463 6.4713832980833335 3 -2 0
429 2 4 0 7.36814 0 16.74620659931785 0 0 0
1559 244 1 -1.1128 12.897965763295485 1.179179470096154 5.9996796535498245 2 -1 0
1939 370 2 0.5564 11.561073625911732 7.761812880286636 10.228667183559578 1 0 0
2590 587 2 0.5564 11.493730954279247 7.337412109627466 7.473134173598168 -4 -4 0
1561 244 2 0.5564 12.404438350505268 0.7904415508563905 5.277499152781291 2 -1 0
1624 265 2 0.5564 13.570178656165517 5.525055981440606 13.209492514771458 1 2 0
1459 210 2 0.5564 12.902871746119024 5.569992995880796 2.7125823000623925 3 -3 0
2269 480 2 0.5564 8.72837569642873 3.072962691064913 7.127731418332381 1 -3 0
2267 480 1 -1.1128 8.449292610629644 3.667069654503596 7.82442559474981 1 -3 0
2268 480 2 0.5564 7.745753770920857 4.183803075720567 7.431677810324084 1 -3 0
495 2 4 0 13.5083 6.381 16.74620659931785 0 0 0
3078 750 2 0.5564 10.812900711963122 5.6304331017571645 3.3934697606441184 -1 -1 0
2455 542 2 0.5564 -1.8004289053052602 0.07772037699342808 6.583257447657292 2 2 0
2716 629 2 0.5564 -0.09960977948349489 4.468823581148695 1.4906678034012149 -1 2 0
438 2 4 0 11.0522 0.709 16.74620659931785 0 0 0
3281 818 1 -1.1128 8.132609755573085 1.7304888072244338 1.8135830989421153 -4 1 0
3496 889 2 0.5564 2.9501279457756886 7.292028675759597 10.446073797695371 2 3 0
1973 382 1 -1.1128 12.460199489769165 0.7535023017431437 3.1483915845245067 -1 1 0
1243 138 2 0.5564 5.961363905065145 0.5376835759413718 13.207679493573036 3 -1 0
3077 750 1 -1.1128 11.204838828873523 5.884214469659068 2.5578782320876967 -1 -1 0
2153 442 1 -1.1128 11.004527300032825 5.3575163944601165 7.484373827551148 3 2 0
2154 442 2 0.5564 11.474108842039456 4.533493004215047 7.613663257874599 3 2 0
2124 432 2 0.5564 12.077280395197217 2.1684954727283787 7.392100599421885 1 0 0
2123 432 1 -1.1128 11.921990922512064 2.8267326961424764 8.069480859600503 1 0 0
1087 86 2 0.5564 8.879628000152229 -0.6243185651631658 5.704994552234857 -5 -2 0
1672 281 2 0.5564 -0.9205781816732544 6.582413706741584 8.809925257442519 2 0 0
2453 542 1 -1.1128 -1.2381738639214515 -0.5792923165917577 6.993666405388713 2 2 0
442 2 4 0 13.5083 0.709 16.74620659931785 0 0 0
3682 951 2 0.5564 6.048142060372083 5.190872192547108 1.2124406552627394 1 1 0
1593 255 2 0.5564 6.1722441993693975 6.098388465632983 7.065105022821409 -2 2 0
1592 255 1 -1.1128 6.090765283920862 5.3511822152959345 6.472419507096664 -2 2 0
950 41 1 -1.1128 1.210928643177013 0.8557991398344744 7.1793518713463165 -5 -1 0
2715 629 2 0.5564 -1.0288625154279836 5.127676294336634 0.493523307768551 -1 2 0
958 43 2 0.5564 10.214429394930814 -0.15693263298075216 0.08975476940972246 -2 0 0
2606 593 1 -1.1128 0.057115791773803694 7.40504287958103 1.0651346957777719 0 1 0
1128 100 2 0.5564 -1.4848370362940628 4.289867316799442 8.335189556603002 4 3 0
1457 210 1 -1.1128 13.80531263992162 5.458563616367514 3.011607656905338 3 -3 0
990 54 2 0.5564 -0.8443211358330237 1.9849435192695228 10.458020437816296 2 -3 0
2062 411 2 0.5564 1.8165113239089372 5.684762433342502 7.820916282283425 1 -2 0
1587 253 2 0.5564 1.0362485461242743 3.5073329574236114 9.07309445430594 2 2 0
2079 417 2 0.5564 3.7988227566754866 1.1896335062695795 13.711256116414479 -2 2 0
2252 475 1 -1.1128 1.3509969277359002 4.367544146415574 11.613446164500555 0 -4 0
2253 475 2 0.5564 1.3411158508699506 3.847754598041069 10.809733578024423 0 -4 0
1127 100 1 -1.1128 -1.6198595657218136 3.501934888408351 7.8087237098565305 4 3 0
2061 411 2 0.5564 1.9921929890505359 4.301106917093024 7.232249313298442 1 -2 0
2060 411 1 -1.1128 1.9951198009532423 4.776135462268489 8.063257491655003 1 -2 0
2254 475 2 0.5564 2.268749918239761 4.613898539959503 11.728656349105131 0 -4 0
3106 759 2 0.5564 3.442328006648476 5.433205363511302 9.292921040804819 -4 2 0
3538 903 2 0.5564 2.416645040409457 0.2525839491368299 5.5992889532322 2 -3 0
1296 156 2 0.5564 4.1768187473420495 2.0485549263465814 9.774178386241712 -4 0 0
1779 317 2 0.5564 -0.4947976199847145 5.189680973229264 12.213579428976436 3 0 0
2611 594 2 0.5564 1.1001692421339317 2.0494590390015874 14.018872229118879 -2 4 0
1778 317 1 -1.1128 -1.2406960156981217 5.754131293209902 12.010446786185154 3 0 0
2609 594 1 -1.1128 0.3429266377364278 2.4244625467943495 13.569217321041036 -2 4 0
2610 594 2 0.5564 0.7198698119032496 2.992369312620299 12.897182710214206 -2 4 0
1297 156 2 0.5564 3.5402867631172747 2.9899020564118075 8.773883393233953 -4 0 0
1295 156 1 -1.1128 4.387367360867883 2.7306269153807463 9.136461059903796 -4 0 0
2078 417 1 -1.1128 3.0459840324697836 1.7792277738379667 13.754244171666578 -2 2 0
2080 417 2 0.5564 3.280561035805517 2.510066797251928 13.182335322033774 -2 2 0
440 2 4 0 12.2802 2.836 16.74620659931785 0 0 0
3104 759 1 -1.1128 4.012247518171395 5.958543892515581 9.854563466032877 -4 2 0
1963 378 2 0.5564 4.178402639073354 5.684612223081575 12.738247876103813 -4 -3 0
1820 331 1 -1.1128 1.3859905614140002 -0.34181917418376656 10.3539855217024 2 0 0
1962 378 2 0.5564 4.5436084855990915 4.236659868613725 12.98715879555473 -4 -3 0
1586 253 1 -1.1128 0.7555619361391656 2.715164345207724 9.531256908625455 2 2 0
1961 378 1 -1.1128 3.7926803933999076 4.818421921824035 12.869285438137384 -4 -3 0
1588 253 2 0.5564 1.1365229183963648 1.9975168328184567 9.025212215177547 2 2 0
952 41 2 0.5564 0.4265161455151341 0.397624954704646 6.87767872211487 -5 -1 0
1501 224 2 0.5564 0.8169279810492377 7.016392304386998 13.436083169737117 -1 1 0
928 33 2 0.5564 6.226989396044104 2.205135847776819 9.452967756111844 -1 3 0
3636 936 2 0.5564 13.648390877613453 3.8847543600201475 1.8805766913393807 2 0 0
1523 232 1 -1.1128 4.098608256759631 0.5244193446138624 10.732973366288409 3 2 0
2443 538 2 0.5564 8.211460534570005 1.7579319337926633 12.530599479632066 2 2 0
2605 592 2 0.5564 10.023618528891507 0.7829805776070646 9.454919189474511 1 -3 0
3635 936 1 -1.1128 13.486832782622676 2.9857056869245553 1.5944945464196696 2 0 0
1293 155 2 0.5564 6.785478106430654 7.4509899164828495 8.638206758329426 -2 1 0
484 2 4 0 7.36814 7.09 16.74620659931785 0 0 0
1242 138 2 0.5564 5.434613984090695 -0.6600622954004363 13.969148173676718 3 -1 0
3105 759 2 0.5564 4.769732407137941 5.397214099386365 10.0199676050095 -4 2 0
2863 678 2 0.5564 6.340998041738494 3.999823250168758 10.327393182254855 2 1 0
3637 936 2 0.5564 12.995062868368715 3.078218096534558 0.7785061941584682 2 0 0
2861 678 1 -1.1128 6.422480962584409 4.872874460567436 10.711291327397726 2 1 0
485 2 4 0 9.82419 4.254 16.74620659931785 0 0 0
2862 678 2 0.5564 6.605280628808629 4.711885127371353 11.636979522042983 2 1 0
1251 141 2 0.5564 12.190058548059556 -0.22924656345597402 11.77265009346774 -1 -1 0
3708 960 2 0.5564 -1.4174002447854315 0.02897028389399347 10.29153302394479 1 0 0