LAMMPS data file via write_data, version 2 Aug 2023, timestep = 5500000, units = real

4432 atoms
4 atom types
2400 bonds
1 bond types
1200 angles
1 angle types
0 impropers
1 improper types

-1.8420299999999998 30.08661 xlo xhi
-0.709 33.323 ylo yhi
-150 150 zlo zhi

Masses

1 15.9994
2 1.00794
3 12.0107
4 12.0107

Pair Coeffs # lj/cut/tip4p/long

1 0.1852 3.1589
2 0 0
3 0.0859 3.3997
4 0.0859 3.3997

Bond Coeffs # harmonic

1 5000 0.9572

Angle Coeffs # harmonic

1 500 104.52

Atoms # full

1 1 3 0 0 0 -16.168203030381882 0 0 0
2 1 3 0 -1.22802 0.709 -16.168203030381882 0 0 0
3 1 3 0 -1.22802 2.127 -16.168203030381882 0 0 0
4 1 3 0 0 2.836 -16.168203030381882 0 0 0
5 1 3 0 2.45605 0 -16.168203030381882 0 0 0
6 1 3 0 1.22802 0.709 -16.168203030381882 0 0 0
7 1 3 0 1.22802 2.127 -16.168203030381882 0 0 0
8 1 3 0 2.45605 2.836 -16.168203030381882 0 0 0
9 1 3 0 4.9121 0 -16.168203030381882 0 0 0
10 1 3 0 3.68407 0.709 -16.168203030381882 0 0 0
11 1 3 0 3.68407 2.127 -16.168203030381882 0 0 0
12 1 3 0 4.9121 2.836 -16.168203030381882 0 0 0
14 1 3 0 6.14012 0.709 -16.168203030381882 0 0 0
15 1 3 0 6.14012 2.127 -16.168203030381882 0 0 0
53 1 3 0 0 4.254 -16.168203030381882 0 0 0
54 1 3 0 -1.22802 4.963 -16.168203030381882 0 0 0
55 1 3 0 -1.22802 6.381 -16.168203030381882 0 0 0
56 1 3 0 0 7.09 -16.168203030381882 0 0 0
57 1 3 0 2.45605 4.254 -16.168203030381882 0 0 0
58 1 3 0 1.22802 4.963 -16.168203030381882 0 0 0
59 1 3 0 1.22802 6.381 -16.168203030381882 0 0 0
60 1 3 0 2.45605 7.09 -16.168203030381882 0 0 0
61 1 3 0 4.9121 4.254 -16.168203030381882 0 0 0
62 1 3 0 3.68407 4.963 -16.168203030381882 0 0 0
63 1 3 0 3.68407 6.381 -16.168203030381882 0 0 0
64 1 3 0 4.9121 7.09 -16.168203030381882 0 0 0
66 1 3 0 6.14012 4.963 -16.168203030381882 0 0 0
67 1 3 0 6.14012 6.381 -16.168203030381882 0 0 0
13 1 3 0 7.36814 0 -16.168203030381882 0 0 0
16 1 3 0 7.36814 2.836 -16.168203030381882 0 0 0
17 1 3 0 9.82419 0 -16.168203030381882 0 0 0
18 1 3 0 8.59617 0.709 -16.168203030381882 0 0 0
19 1 3 0 8.59617 2.127 -16.168203030381882 0 0 0
20 1 3 0 9.82419 2.836 -16.168203030381882 0 0 0
21 1 3 0 12.2802 0 -16.168203030381882 0 0 0
22 1 3 0 11.0522 0.709 -16.168203030381882 0 0 0
23 1 3 0 11.0522 2.127 -16.168203030381882 0 0 0
24 1 3 0 12.2802 2.836 -16.168203030381882 0 0 0
26 1 3 0 13.5083 0.709 -16.168203030381882 0 0 0
27 1 3 0 13.5083 2.127 -16.168203030381882 0 0 0
65 1 3 0 7.36814 4.254 -16.168203030381882 0 0 0
68 1 3 0 7.36814 7.09 -16.168203030381882 0 0 0
69 1 3 0 9.82419 4.254 -16.168203030381882 0 0 0
70 1 3 0 8.59617 4.963 -16.168203030381882 0 0 0
71 1 3 0 8.59617 6.381 -16.168203030381882 0 0 0
72 1 3 0 9.82419 7.09 -16.168203030381882 0 0 0
73 1 3 0 12.2802 4.254 -16.168203030381882 0 0 0
74 1 3 0 11.0522 4.963 -16.168203030381882 0 0 0
75 1 3 0 11.0522 6.381 -16.168203030381882 0 0 0
76 1 3 0 12.2802 7.09 -16.168203030381882 0 0 0
78 1 3 0 13.5083 4.963 -16.168203030381882 0 0 0
79 1 3 0 13.5083 6.381 -16.168203030381882 0 0 0
2111 428 1 -1.1128 3.347562033467632 4.596905125354301 -13.009757100933475 0 0 0
2113 428 2 0.5564 3.4376936238929434 3.6815168500378097 -13.274661240644841 0 0 0
2112 428 2 0.5564 4.2474501285426784 4.912256036257707 -12.926132137625391 0 0 0
4274 1149 1 -1.1128 3.57246309166245 1.6667712053516741 -12.793318104198702 1 1 0
4275 1149 2 0.5564 2.635559162813718 1.7461771318138615 -12.614041669770705 1 1 0
1166 113 1 -1.1128 4.73453803796259 3.0454245699321896 -7.276096130407173 -2 4 0
1167 113 2 0.5564 4.349474287122474 2.797937925289388 -8.116757337679653 -2 4 0
4276 1149 2 0.5564 3.996191459083707 1.9261390018722357 -11.97513700388991 1 1 0
1168 113 2 0.5564 4.369999836652412 3.9108455276158027 -7.090640103948324 -2 4 0
2019 397 2 0.5564 0.7512329491492534 1.288274913657781 -6.342154590979753 -4 1 0
3825 999 2 0.5564 1.4242008925658702 5.207340635560769 -12.763125104397389 2 2 0
2018 397 1 -1.1128 0.8927796328083165 0.37661506755197716 -6.087059345625756 -4 1 0
1856 343 1 -1.1128 4.147537643588118 2.623337295586233 -10.227307078547682 -4 1 0
1857 343 2 0.5564 3.1951059048084027 2.550648321444713 -10.289141347506797 -4 1 0
4410 1194 2 0.5564 7.805005739198338 4.026054978607351 -9.42547050997723 -2 3 0
1858 343 2 0.5564 4.3146830739566475 3.5652464578609004 -10.194076814450453 -4 1 0
3693 955 2 0.5564 6.47938011541744 3.784541196772932 -7.383661288251918 3 -4 0
4075 1082 2 0.5564 6.26640849770096 6.24597620021282 -12.585788755478518 1 6 0
4409 1194 1 -1.1128 7.817929857603179 3.5569672194650956 -10.259750472011014 -2 3 0
3184 785 2 0.5564 4.336753778124921 1.8174402096973234 -6.001090029568848 -1 2 0
4073 1082 1 -1.1128 5.878218774281412 5.388725266266109 -12.410673955400727 1 6 0
3824 999 1 -1.1128 0.6018646318178328 5.495497468222973 -12.366934519059178 2 2 0
2968 713 2 0.5564 10.294910831275725 7.228152742795422 -10.577993861747448 -2 0 0
4074 1082 2 0.5564 6.483021420649769 4.972314247843144 -11.79662877987514 1 6 0
3421 864 2 0.5564 1.0864729529150525 2.141124579974459 -9.650527622392524 -2 3 0
3419 864 1 -1.1128 1.396274766694461 2.3392698808372576 -10.53426645594661 -2 3 0
2854 675 2 0.5564 0.04470205406120921 5.856626100591234 -8.387651014447574 -1 0 0
3826 999 2 0.5564 0.20189277820707122 6.0603594076308545 -13.028137091301803 2 2 0
2660 611 1 -1.1128 1.9837809749568678 7.499447204964686 -10.857474090595689 4 0 0
3326 833 1 -1.1128 1.3696763992929195 2.8344708779753014 -7.702632475678071 3 -1 0
3327 833 2 0.5564 0.4406634295675727 3.0229144398962298 -7.569736375447987 3 -1 0
2020 397 2 0.5564 0.011923327318835789 0.019721620933765987 -5.973250605358534 -4 1 0
2435 536 1 -1.1128 -1.7841407735378871 -0.24872012869643 -6.699560559725333 -1 2 0
3328 833 2 0.5564 1.8256859943461952 3.503358741644848 -7.191869409067865 3 -1 0
2473 548 2 0.5564 -0.4487577765905918 4.079521399598307 -12.28577372487917 -2 3 0
3185 786 1 -1.1128 -1.192096287040396 3.053564903862078 -6.621622620792734 4 6 0
2852 675 1 -1.1128 0.8901346114523606 6.015717573011631 -7.967923336977113 -1 0 0
3420 864 2 0.5564 0.6496306903714152 2.7586392334095655 -10.961917342948917 -2 3 0
1600 257 2 0.5564 1.9462347903985342 -0.10815765617946643 -10.339618311619496 -4 0 0
2853 675 2 0.5564 1.5169336252084502 5.520783692806767 -8.495556675703044 -1 0 0
2159 444 1 -1.1128 6.6975384634701 0.40040235445474204 -10.01199880547637 -3 -1 0
1819 330 2 0.5564 6.780934706922478 4.587418462152513 -1.2666570927262244 2 2 0
2661 611 2 0.5564 1.4421360016813707 6.9093894352924465 -11.38158212055213 4 0 0
4411 1194 2 0.5564 8.730704191277074 3.5994528624581 -10.544841499326386 -2 3 0
2818 663 2 0.5564 9.060582112379507 5.417947805439869 -1.3608959900551043 2 1 0
3180 784 2 0.5564 8.91320811483777 -0.512139662949922 -8.545512277074227 5 0 0
3347 840 1 -1.1128 6.88924869909291 6.848792856976294 -7.703680858367343 -3 2 0
1440 204 2 0.5564 9.748677585920909 1.6074928406751776 -9.085567052761114 0 -6 0
3694 955 2 0.5564 7.185812323323142 5.123290588769 -7.359074691924209 3 -4 0
3692 955 1 -1.1128 7.344002868855461 4.18588193124382 -7.470777960704287 3 -4 0
4180 1117 2 0.5564 3.9331196794325693 7.525541420491332 -8.681315804459937 -1 2 0
1441 204 2 0.5564 8.623673439260758 0.8456967678380362 -9.753353725217972 0 -6 0
3187 786 2 0.5564 -1.3598746089108464 2.65580188755058 -5.767299333017579 4 6 0
3349 840 2 0.5564 7.174552099637423 6.843381729582136 -8.617358525098625 -3 2 0
1760 311 1 -1.1128 13.432228971779573 1.4060410336483906 -10.334064886667727 2 1 0
1912 361 2 0.5564 11.932232769221658 3.4575577029553144 -12.463617910990411 -2 1 0
1439 204 1 -1.1128 9.575862278434535 0.8588033087602683 -9.656385685866367 0 -6 0
1991 388 1 -1.1128 7.649013237332975 7.363746519184191 -10.422241796038744 2 2 0
1992 388 2 0.5564 8.438392107527486 6.967463218434012 -10.791126733094243 2 2 0
2788 653 2 0.5564 8.092142337948882 -0.37852822726701796 -12.408065998614191 -1 -1 0
1961 378 1 -1.1128 10.606267785967475 2.932500115608825 -7.9491631402112795 2 0 0
1962 378 2 0.5564 10.705482230376425 3.646652777627554 -7.319577721448119 2 0 0
1963 378 2 0.5564 11.402504512344711 2.4109697056502233 -7.8479241384740135 2 0 0
2786 653 1 -1.1128 8.888792408909666 -0.6139755995712961 -12.883620456703703 -1 -1 0
2787 653 2 0.5564 9.4287344227324 0.17581671632741808 -12.853187534711045 -1 -1 0
2769 647 2 0.5564 11.204891202287461 1.1478907011844226 -11.268047232385102 2 4 0
2768 647 1 -1.1128 11.111741421252312 1.2536969507135192 -12.214810334403088 2 4 0
2532 568 2 0.5564 10.552166161599828 3.9692522237970063 -9.52841372100025 0 3 0
2531 568 1 -1.1128 10.41858060730609 4.1804649474295035 -10.452417641865985 0 3 0
2770 647 2 0.5564 12.00972052057557 1.2496386255904068 -12.546246688565548 2 4 0
1910 361 1 -1.1128 12.69417853340211 3.951074704848757 -12.76712217172004 -2 1 0
1124 99 1 -1.1128 13.331994546345706 6.635900672477232 -8.169880836810147 0 1 0
2300 491 1 -1.1128 10.046778102148297 5.318347470634251 -3.977185155726361 -1 -1 0
2376 516 2 0.5564 11.525344894894836 1.9511161968057518 -4.838266965198424 -2 -2 0
2966 713 1 -1.1128 10.116045915963058 6.812892339289659 -11.421675416707668 -2 0 0
2748 640 2 0.5564 -1.5677335074331962 5.591887026016118 -2.34623998127651 -2 3 0
3819 997 2 0.5564 13.390967148077483 1.605606886947331 -8.392963480794082 -1 -1 0
2065 412 2 0.5564 11.891066861855 5.744218364658864 -6.955387099381663 -2 3 0
2063 412 1 -1.1128 11.045829447574661 5.407278424624322 -6.658267575671881 -2 3 0
2064 412 2 0.5564 10.41767628858273 6.087728613073498 -6.900439662875596 -2 3 0
2549 574 1 -1.1128 9.088414251214733 2.770901311942919 -3.0977633365310653 -1 2 0
3619 930 2 0.5564 0.20798552264291703 3.4595614087137196 -0.6742804884838998 -2 -3 0
2533 568 2 0.5564 10.683442346439 5.097030080192243 -10.52980818589783 0 3 0
3794 989 1 -1.1128 8.571664820360732 0.5372024743696805 -0.23512139374184102 -3 1 0
2469 547 2 0.5564 -1.5925451296298658 7.60176297387207 -5.275906741230945 -2 2 0
3796 989 2 0.5564 7.633637646005632 0.34707443504228996 -0.22123625953470188 -3 1 0
2967 713 2 0.5564 9.914855164939526 7.540937407379047 -12.009643543786744 -2 0 0
1761 311 2 0.5564 13.629693238265187 1.6753985601131125 -11.231109876756747 2 1 0
1497 223 2 0.5564 5.193982826871863 0.6412174244660745 -3.849463236736538 3 5 0
2550 574 2 0.5564 8.742728380385522 2.638905123392053 -3.9805531556039915 -1 2 0
1184 119 1 -1.1128 3.5153854977125487 5.412064162624011 -6.196557525001082 1 -3 0
3018 730 2 0.5564 -0.3051993988076298 4.795217691893119 -3.9577149384327277 2 0 0
2684 619 1 -1.1128 -0.009824866868131301 0.5574178164855436 -2.9359207047262483 2 3 0
1186 119 2 0.5564 3.0435371457039526 4.868784573506498 -5.565336850945478 1 -3 0
1722 298 2 0.5564 7.478095284326281 6.628707250841879 -2.930684541978997 -2 2 0
3422 865 1 -1.1128 13.623348832636301 0.1223348097055445 -1.101216911035337 5 0 0
3201 791 2 0.5564 3.2377022503066826 5.652736686900455 -10.711805197371554 5 2 0
1126 99 2 0.5564 14.038466331733352 6.997566154333621 -7.634779018612392 0 1 0
3130 767 2 0.5564 14.053193388341079 0.34773647269274544 -2.7379513638286554 -3 -3 0
2521 564 2 0.5564 -1.2907390761199093 1.4693358455890535 -3.8507403574810506 -2 4 0
3017 730 1 -1.1128 -0.22258907698983188 4.066026247745061 -3.3431486128554133 2 0 0
2161 444 2 0.5564 6.360926776162032 1.2964234063016624 -10.003442209566487 -3 -1 0
1817 330 1 -1.1128 7.148274766082311 3.9826223191649897 -0.6220487994817174 2 2 0
2779 650 2 0.5564 -0.22797205376046023 5.922168974239354 -0.6777121426154165 2 -2 0
2491 554 2 0.5564 1.9564567549862677 6.520304312630526 -2.782683694961231 -1 0 0
2397 523 2 0.5564 0.3416908067442604 5.866037511701292 -6.243145515453792 1 3 0
4336 1169 2 0.5564 2.7382989418606387 1.55476202830867 -1.2095906341749507 2 0 0
2901 691 2 0.5564 4.526041317855415 3.541431659904755 -3.647142757164009 -2 3 0
2902 691 2 0.5564 5.993852435139387 3.2321387919522784 -3.8515303403319807 -2 3 0
2900 691 1 -1.1128 5.4003818899729925 3.784521604663436 -3.3427069752113328 -2 3 0
2398 523 2 0.5564 0.8429806762862426 6.4128437215040615 -4.923443250121362 1 3 0
1598 257 1 -1.1128 2.696085710057938 -0.6965113322582304 -10.42797574170976 -4 0 0
2489 554 1 -1.1128 2.2035071099313597 6.973378212276884 -3.5888619889839455 -1 0 0
3183 785 2 0.5564 3.7856520551915045 0.6524837952532686 -5.206692881003382 -1 2 0
3182 785 1 -1.1128 4.140255321753219 1.536034568809512 -5.107538759360002 -1 2 0
1049 74 1 -1.1128 3.62632881827262 3.337387576476161 -0.7863335872652389 -2 1 0
1042 71 2 0.5564 5.465072730771613 6.7663764729270595 -4.386833200050718 1 -3 0
1040 71 1 -1.1128 5.854775055232938 6.006616088812199 -4.819421236221002 1 -3 0
1185 119 2 0.5564 4.331826104478582 5.641510346387327 -5.752696915634751 1 -3 0
2685 619 2 0.5564 0.2185262473857998 -0.37091392624718383 -2.888039904397455 2 3 0
2663 612 1 -1.1128 -1.6509909851169517 -0.30613162068649774 -9.296357606980212 0 0 0
1762 311 2 0.5564 13.803507982446611 0.526872755267706 -10.260244075593848 2 1 0
1637 270 1 -1.1128 8.316737405011573 7.390397815125533 -4.3158187711311 -3 2 0
2777 650 1 -1.1128 0.7284465785402049 5.898865936661987 -0.7085866254426152 2 -2 0
951 41 2 0.5564 2.791216634795789 2.7271012185779706 -4.331201161652342 4 -1 0
950 41 1 -1.1128 2.7854646694710694 3.6515557350177055 -4.083037162851391 4 -1 0
3186 786 2 0.5564 -1.722944829393395 3.850074745232085 -6.623914767641078 4 6 0
1050 74 2 0.5564 4.529798547465029 3.4245939761333903 -1.0902708501762322 -2 1 0
3395 856 1 -1.1128 6.8130576133053475 0.17335701772716014 -6.262042705956466 1 0 0
2396 523 1 -1.1128 0.07229196502429507 6.0256613985825895 -5.338611610266522 1 3 0
952 41 2 0.5564 1.9617779984976582 3.7677905556269007 -3.6094708730448053 4 -1 0
4334 1169 1 -1.1128 1.9242976722057583 1.074764378356674 -1.0571526129793982 2 0 0
1051 74 2 0.5564 3.2143963095130874 4.170329061820417 -1.01602913022255 -2 1 0
1041 71 2 0.5564 5.850280410413524 5.321409025259823 -4.151056794849123 1 -3 0
3396 856 2 0.5564 5.917766443524004 0.12837167921329387 -6.597696589344062 1 0 0
2686 619 2 0.5564 0.5959236155412017 0.9850861214202425 -2.3306061217355922 2 3 0
3141 771 2 0.5564 11.18207709497246 -0.11330517320428457 -6.552176467891555 2 -2 0
2471 548 1 -1.1128 -0.9354354887957625 3.3092977322700943 -11.992282715403771 -2 3 0
1422 198 2 0.5564 7.376578818748473 1.9190062452121084 -5.598896177976556 2 1 0
1638 270 2 0.5564 7.649463384753703 7.131235415752595 -4.951281875703564 -3 2 0
3397 856 2 0.5564 6.717660014643782 0.09556349134952816 -5.312787313930006 1 0 0
1125 99 2 0.5564 13.770648738641427 6.301037443687639 -8.951981850763573 0 1 0
2997 723 2 0.5564 13.340416615528568 4.306034702727469 -0.7519305539566803 -2 2 0
3428 867 1 -1.1128 14.108147232388239 1.4058870360486242 -13.139704767309077 -2 -1 0
3818 997 1 -1.1128 13.126011112385305 1.901067359620259 -7.521907996958346 -1 -1 0
2160 444 2 0.5564 6.277863993674768 -0.020791855291126954 -9.261860446507884 -3 -1 0
2824 665 2 0.5564 -1.2029056373829115 0.31134671941631414 -1.3867319993175693 0 2 0
3629 934 1 -1.1128 9.943119746002004 0.9779695589443923 -5.8977991349934715 0 -2 0
3630 934 2 0.5564 9.140951638644802 0.5497947180391828 -6.196842147431458 0 -2 0
3202 791 2 0.5564 4.715249808846995 5.931761236343055 -10.536021320935019 5 2 0
3631 934 2 0.5564 10.096471512634006 1.6736689726736382 -6.5371142426445985 0 -2 0
3142 771 2 0.5564 12.488988982955316 0.28204336672525404 -7.206071891226472 2 -2 0
3423 865 2 0.5564 12.739576396233293 0.2905750795074079 -1.4281344511523462 5 0 0
2436 536 2 0.5564 -1.480593539033157 -0.32419900275271635 -7.604213208421951 -1 2 0
1818 330 2 0.5564 7.70036504371241 3.3919790487270327 -1.1344690662190455 2 2 0
1767 313 2 0.5564 8.521783313652898 7.330625828747669 -7.19025824059112 -2 -1 0
1911 361 2 0.5564 12.34412288741501 4.808726368042988 -13.008219024720386 -2 1 0
3140 771 1 -1.1128 11.92813671565771 -0.47373128985945695 -7.03147160430362 2 -2 0
1721 298 1 -1.1128 7.145941775131543 6.415786345843022 -2.0585749550301067 -2 2 0
2490 554 2 0.5564 3.01823640926562 7.425640370671266 -3.3699621387430563 -1 0 0
1668 280 2 0.5564 9.905092943738357 7.396579978053348 -0.4917722122923446 0 0 0
1242 138 2 0.5564 13.997121129018545 6.128996102459401 -1.58588489918575 4 0 0
1502 225 1 -1.1128 5.879747550280996 0.07834948381637447 -0.383953688061253 5 -2 0
1951 374 2 0.5564 12.607909075176803 5.6947809930877495 -4.024045066664715 0 -2 0
1683 285 2 0.5564 13.602541779312654 5.062394169428022 -11.061744951225942 2 -1 0
2301 491 2 0.5564 9.329764414761742 5.952478129836563 -3.9805917676232503 -1 -1 0
2665 612 2 0.5564 -0.8912084870423155 -0.4613663110860323 -9.857486234617415 0 0 0
2422 531 2 0.5564 -1.6889052328635636 4.036770080334155 -9.184101097032602 -2 0 0
1950 374 2 0.5564 12.85668996185285 4.217120094981055 -4.23974538456479 0 -2 0
1504 225 2 0.5564 5.7790283360893655 0.48581947418396826 -1.244219243637326 5 -2 0
2375 516 1 -1.1128 12.08459053731957 2.4110405922615437 -4.212210680347506 -2 -2 0
1949 374 1 -1.1128 13.3092978922664 5.04629485319524 -4.08530421832785 0 -2 0
1421 198 1 -1.1128 7.367686180931384 2.746564143087388 -5.117956372827697 2 1 0
2817 663 2 0.5564 10.538889841510471 5.527756429640056 -1.668217195859024 2 1 0
2816 663 1 -1.1128 9.902641149290632 5.635885647589873 -0.9613023019483325 2 1 0
2998 723 2 0.5564 12.73987136206902 4.586357777840086 -2.1130563858419387 -2 2 0
3820 997 2 0.5564 13.94092258235113 2.1817212000772903 -7.105508760663568 -1 -1 0
3197 790 1 -1.1128 10.885394033438919 1.1411197064003076 -1.5326858387727524 -4 -2 0
2996 723 1 -1.1128 12.659629774974832 4.818557959535753 -1.1879189175378344 -2 2 0
2551 574 2 0.5564 9.610367032227098 3.5707365635933375 -3.1615316114859744 -1 2 0
2377 516 2 0.5564 12.779819377377013 1.7858933429101085 -4.007067462623517 -2 -2 0
3199 790 2 0.5564 10.049180962221664 0.9583868638508439 -1.104212870720571 -4 -2 0
3837 1003 2 0.5564 8.495016423452919 -0.4339881856777126 -2.8496684560248613 3 1 0
1496 223 1 -1.1128 5.847245766183739 0.011871048925874055 -3.543842100724185 3 5 0
3198 790 2 0.5564 10.657910508688495 1.7040082636056242 -2.272712914021409 -4 -2 0
1423 198 2 0.5564 7.387433297883879 3.4196908619785225 -5.798216890295975 2 1 0
2302 491 2 0.5564 10.52280470223138 5.489980430509881 -4.789697450265496 -1 -1 0
3200 791 1 -1.1128 3.9949678945741867 5.413147947249432 -10.177594681818368 5 2 0
1723 298 2 0.5564 6.660374070068758 7.195639157848214 -1.7897112634867107 -2 2 0
4335 1169 2 0.5564 1.3673682943417953 1.6915187423166105 -0.5820959211008431 2 0 0
3019 730 2 0.5564 -0.9568924108020126 3.4895647445184315 -3.5546389013134774 2 0 0
3549 907 2 0.5564 6.20634874005489 -0.5503565580117282 -11.658250592401581 -4 2 0
3838 1003 2 0.5564 9.873425032580208 -0.3854530349830533 -3.4737932110443164 3 1 0
3348 840 2 0.5564 5.98729665050645 7.167688875509857 -7.735797884376886 -3 2 0
2897 690 1 -1.1128 -1.1146250013119101 7.54136425636959 -12.769722176576202 3 -1 0
1431 201 2 0.5564 11.710673211580085 7.450173080785111 -11.686317353573425 -4 -1 0
1766 313 1 -1.1128 9.443648783024146 7.518278033252509 -7.013658045784708 -2 -1 0
3021 731 2 0.5564 3.211373116920708 -0.5703791287861368 -13.500026242616565 0 5 0
4121 1098 1 -1.1128 4.850001476253213 -0.49186463463147356 -8.352472272269727 -4 -2 0
4122 1098 2 0.5564 4.418769920760045 -0.24964927620853927 -9.171987246245966 -4 -2 0
4269 1147 2 0.5564 2.4060258993129917 7.679732197351872 -5.7144152288383125 -2 0 0
2420 531 1 -1.1128 -1.502240597409684 4.963092896473367 -9.03139997193168 -2 0 0
3787 986 2 0.5564 2.664610949645956 -0.3076938126779533 -6.220916036606356 4 1 0
4270 1147 2 0.5564 1.7848631972503288 7.437299264737361 -7.073563442252718 -2 0 0
3430 867 2 0.5564 13.81583401974292 2.2946116077914107 -13.342085132509094 -2 -1 0
2472 548 2 0.5564 -1.4833663525764893 3.630198476994017 -11.27602245955982 -2 3 0
2163 445 2 0.5564 -1.3553466259376648 0.410828520137288 -12.58324889494589 -2 0 0
2164 445 2 0.5564 -1.8118871722938823 1.822693789771584 -12.883421254883428 -2 0 0
2114 429 1 -1.1128 1.6477427369220052 3.5061031278939985 6.521536442245721 1 -1 0
3476 883 1 -1.1128 1.7370212848684958 3.193947013481107 2.357682684762465 1 1 0
2115 429 2 0.5564 1.1392832863322675 2.701561758427668 6.419438234224613 1 -1 0
2116 429 2 0.5564 2.4795283336529934 3.2182150601910426 6.897687064241688 1 -1 0
3477 883 2 0.5564 1.5641794591432547 3.7032920834845577 3.1494721013266607 1 1 0
1070 81 1 -1.1128 3.5686171633085046 1.7909021089207606 3.7886193333549025 5 4 0
1183 118 2 0.5564 5.384739460448034 5.819064247144994 1.292476707101189 4 1 0
2255 476 1 -1.1128 3.6776776034668686 5.437649681357652 1.4331641441549563 -1 0 0
941 38 1 -1.1128 0.2576531225987804 -0.14549538530679296 3.9360594091763845 3 0 0
4372 1181 2 0.5564 4.63255233083006 2.037992036170773 7.969300123225586 -1 -1 0
4370 1181 1 -1.1128 4.393916980780672 2.8928788308065085 7.610895638276754 -1 -1 0
4058 1077 1 -1.1128 6.116645341946278 -0.7058768621887097 14.350051743075843 3 -2 0
2257 476 2 0.5564 3.3590297626859007 6.323644012588754 1.2607968906056337 -1 0 0
4371 1181 2 0.5564 4.666386275411517 2.853306138398279 6.6941468801942055 -1 -1 0
2256 476 2 0.5564 2.883987172308734 4.916536624752544 1.5545321584798082 -1 0 0
1764 312 2 0.5564 0.3201215135933135 0.18440502765823097 8.326857343248447 -4 0 0
3256 809 2 0.5564 13.702216626007457 2.635340697150729 12.21561095912506 -5 3 0
2462 545 1 -1.1128 9.369476083568248 1.3893398144417564 9.334445916478481 2 -3 0
1147 106 2 0.5564 -1.4232265904880574 3.2865267132710256 2.7694128031097356 0 -2 0
3478 883 2 0.5564 2.537652757935579 2.7078610123867994 2.5550262535469557 1 1 0
3618 930 2 0.5564 0.47521677132483375 3.2161718348375414 0.7958377005798799 -2 -3 0
3126 766 2 0.5564 0.09730379269131689 0.9775831858155081 5.279614427366084 2 1 0
2098 423 2 0.5564 1.4630282144946771 4.62578668442384 5.161833184802299 0 -3 0
3402 858 2 0.5564 11.653469114595696 7.624167777117214 2.385051981274567 0 -1 0
3267 813 2 0.5564 5.180570502748879 0.31002126016499215 10.52614528434546 -2 3 0
4264 1145 2 0.5564 13.394368150609518 5.976723009757221 3.647890528953093 -3 1 0
2394 522 2 0.5564 2.700689863842343 6.89316595727593 12.285736271482573 1 -4 0
3247 806 2 0.5564 11.479168842284606 2.1224572140558053 0.19095954635927148 -5 -2 0
2091 421 2 0.5564 -0.6455069074387849 6.12337210236772 2.576985000442695 1 0 0
3127 766 2 0.5564 -0.6371622281691113 1.1114113492604016 6.596637369566871 2 1 0
2097 423 2 0.5564 1.8228118511744027 5.879437467639965 4.393188345321243 0 -3 0
4095 1089 2 0.5564 12.47959967379229 3.940828009172833 4.441119865072377 -1 4 0
1145 106 1 -1.1128 -1.295494293089938 4.23372276531551 2.821815007496849 0 -2 0
3125 766 1 -1.1128 -0.07168781063662144 1.5930906289967042 5.992935015581713 2 1 0
3081 751 2 0.5564 5.289884270101011 3.218787506646817 1.536459308634323 0 3 0
4203 1125 2 0.5564 13.787720155639438 6.425217894515783 12.642436182384493 4 1 0
856 9 2 0.5564 13.15631739315045 -0.6165585312072397 11.953809327467855 -1 1 0
3551 908 1 -1.1128 12.854023053908728 0.7912252545707892 9.950424192133415 0 5 0
1103 92 1 -1.1128 -1.5075721497110688 -0.11062658830785829 7.6130045775870245 -1 0 0
1146 106 2 0.5564 -1.3385944775209868 4.430288711604342 3.757630133347826 0 -2 0
484 2 4 0 7.36814 7.09 20.3563331933874 0 0 0
2090 421 1 -1.1128 -0.9522500028858125 7.004668612096643 2.363770251014203 1 0 0
2096 423 1 -1.1128 1.2535010904279529 5.110518752903373 4.363478756829825 0 -3 0
1045 72 2 0.5564 12.189305979502276 1.0439535704144436 16.35338539478831 0 3 0
4262 1145 1 -1.1128 14.05436096044309 5.3470386343066965 3.3578172362706713 -3 1 0
1072 81 2 0.5564 4.147701579604144 1.3295866500929556 3.181920086314658 5 4 0
3683 952 1 -1.1128 -1.7211220195923853 1.2916453915972201 2.2660240594790606 -1 3 0
3684 952 2 0.5564 -0.8400361299053735 1.0516496612996842 2.5529445316718595 -1 3 0
494 2 4 0 13.5083 4.963 20.3563331933874 0 0 0
3617 930 1 -1.1128 0.07150158298744315 2.8192573278068656 0.02401426340586017 -2 -3 0
2201 458 1 -1.1128 13.828885105003462 6.860460831384821 17.115533156092816 4 -4 0
2310 494 2 0.5564 9.774499895130623 0.31529007933943093 16.743483917767307 2 2 0
3015 729 2 0.5564 -1.332780549042746 3.2215000672134857 5.814756869280132 2 6 0
1181 118 1 -1.1128 6.326273677843323 5.900967533931112 1.14068331732432 4 1 0
1417 196 2 0.5564 6.216524224151974 5.917560135519189 2.976603583242006 -4 -2 0
1071 81 2 0.5564 4.106685762449353 2.4991697015153735 4.142280359668947 5 4 0
1290 154 2 0.5564 8.800221201335122 0.16381652820646395 6.73716178450574 0 -2 0
1182 118 2 0.5564 6.524840063304057 5.2240271926507456 0.49372322906649413 4 1 0
2341 504 2 0.5564 6.064050874946233 3.1052731384315995 4.541458346208864 1 2 0
2340 504 2 0.5564 5.407775720218919 4.440611465844688 4.820884171956466 1 2 0
2339 504 1 -1.1128 5.341302507859023 3.5074167601850714 5.023284400255282 1 2 0
3405 859 2 0.5564 8.203297872059327 1.2868879204156674 3.0177257002938083 -3 -2 0
3404 859 1 -1.1128 7.842982653897419 2.081476660767993 3.4114724575841913 -3 -2 0
4096 1089 2 0.5564 11.240880860030584 3.2836341327104575 5.011710036972149 -1 4 0
3721 964 2 0.5564 9.236035622132123 4.335661586842768 4.9783872766293085 3 -1 0
4213 1128 2 0.5564 9.681632283475375 3.751220541726217 1.4603831212319256 -1 -2 0
3719 964 1 -1.1128 8.854699529173928 5.067220243362009 4.492957192315074 3 -1 0
3720 964 2 0.5564 8.868141075451794 4.781990900547713 3.5793345316008787 3 -1 0
3245 806 1 -1.1128 11.131380810531743 2.8569728696249577 0.6966927387333284 -5 -2 0
3080 751 1 -1.1128 5.593909380448151 2.311159328899372 1.5401573589867135 0 3 0
3406 859 2 0.5564 8.367812446842803 2.7916283676086056 3.0420456203947843 -3 -2 0
4211 1128 1 -1.1128 8.866992004383757 4.124156915840594 1.7973085638080202 -1 -2 0
1289 154 1 -1.1128 9.600837886800957 -0.27499579891409914 6.449605028385404 0 -2 0
4272 1148 2 0.5564 9.45061529465315 7.272926905896553 7.837098815774904 1 2 0
3740 971 1 -1.1128 11.44651343214193 -0.5562851385293462 3.228914551849963 2 4 0
3815 996 1 -1.1128 11.387321124141751 6.2719006888317645 4.097418302207292 0 0 0
3552 908 2 0.5564 13.676463171450452 0.30213053929887296 9.925589067336954 0 5 0
3816 996 2 0.5564 10.456317524867883 6.338922678537396 4.309486224383835 0 0 0
3246 806 2 0.5564 11.216728710903118 3.611442683946765 0.113829310477016 -5 -2 0
1416 196 2 0.5564 7.034991832912335 5.674363805750967 4.226748624140209 -4 -2 0
3741 971 2 0.5564 12.16315100054797 0.07827241795142761 3.2307809136206673 2 4 0
3728 967 1 -1.1128 13.94756791869073 2.5356114640396883 15.040217328662463 0 0 0
1415 196 1 -1.1128 6.137804171517574 5.817182233953593 3.9252665935582347 -4 -2 0
492 2 4 0 12.2802 7.09 20.3563331933874 0 0 0
4237 1136 2 0.5564 13.395876048579739 2.3409442839561003 6.411828497609472 1 4 0
4374 1182 2 0.5564 8.193819292511934 5.787236679329758 6.143435457833226 0 2 0
4212 1128 2 0.5564 8.273395913420277 4.1218660080394045 1.04639154033724 -1 -2 0
2194 455 2 0.5564 9.018271842409792 2.0860907144306133 6.219874272224007 2 1 0
2193 455 2 0.5564 10.232485996829007 2.8806418851214723 6.651476851412337 2 1 0
2192 455 1 -1.1128 9.532960735816081 2.8621472771019163 5.9983617624838566 2 1 0
1363 178 2 0.5564 11.6714222276307 -0.45603195910211314 6.731442247130936 2 5 0
4273 1148 2 0.5564 9.913873129365882 6.242281880342145 8.84460073979685 1 2 0
1503 225 2 0.5564 5.727817472033409 0.789978750111081 0.2379296742883761 5 -2 0
4373 1182 1 -1.1128 7.754020353549614 6.119374486797321 6.9260584892661505 0 2 0
2309 494 1 -1.1128 9.163025860122167 -0.4179293462004355 16.674766158084395 2 2 0
1107 93 2 0.5564 7.29657459130813 -0.1809438455121179 17.223121999917485 -1 0 0
486 2 4 0 8.59617 4.963 20.3563331933874 0 0 0
1003 58 2 0.5564 6.531101798014106 7.31536964536426 7.931317371665568 -4 -1 0
3847 1006 2 0.5564 5.373610752842584 6.974953615939338 5.453649321617851 -1 0 0
4235 1136 1 -1.1128 13.848942625168998 1.8127426400606461 7.06907754414326 1 4 0
2085 419 2 0.5564 12.543695154218618 2.329867627500367 1.9397586022846658 3 2 0
2084 419 1 -1.1128 13.103378787149733 1.9225457910246533 2.600878126214592 3 2 0
2488 553 2 0.5564 -0.2518563910384002 1.6819022756796054 11.767835702788233 4 -2 0
1894 355 2 0.5564 4.476524444105271 -0.05956561308891688 13.686618761815527 -3 0 0
4094 1089 1 -1.1128 12.16833018041167 3.125891247005071 4.835105052026558 -1 4 0
481 2 4 0 7.36814 4.254 20.3563331933874 0 0 0
1948 373 2 0.5564 10.944600814400015 4.546650762863559 17.06250630850346 0 -1 0
3685 952 2 0.5564 -1.6053657140770259 1.5988248762167383 1.3668718935929538 -1 3 0
488 2 4 0 9.82419 7.09 20.3563331933874 0 0 0
3266 813 1 -1.1128 4.397827193056142 0.5007200736535464 10.009250187864852 -2 3 0
495 2 4 0 13.5083 6.381 20.3563331933874 0 0 0
3156 776 2 0.5564 12.940484108276774 -0.5267031965656354 1.8288374820559417 -6 -2 0
2092 421 2 0.5564 -0.2500605403537204 7.381430557950609 1.8334708991681725 1 0 0
3535 902 2 0.5564 0.5454469044230934 6.676845161344571 12.885664654035802 -1 0 0
1278 150 2 0.5564 7.257613731432242 0.11299574552233951 11.362289080460556 2 2 0
1075 82 2 0.5564 6.836409831208792 5.468894547189822 10.909242088287707 0 0 0
1593 255 2 0.5564 -0.7606112698343775 -0.2135747687545694 12.648292416182791 0 -2 0
4035 1069 2 0.5564 2.5713787436780167 -0.6728833459770056 12.344833582872672 -2 2 0
1089 87 2 0.5564 0.6955367355902315 2.9676579044601517 14.604360458458642 5 2 0
1068 80 2 0.5564 2.976788246620085 1.7706110134955357 10.680122092915907 4 3 0
1073 82 1 -1.1128 5.9562918072152575 5.743307617395629 11.166777258651432 0 0 0
2487 553 2 0.5564 -0.4020188051554468 2.8421735695391357 10.807042917629479 4 -2 0
1067 80 1 -1.1128 2.5932240867408 2.5714153492836807 11.037647310188754 4 3 0
1443 205 2 0.5564 2.5187319800359043 2.198595556011501 16.017854880271607 1 3 0
3533 902 1 -1.1128 -0.3797932629704218 6.571650077636955 13.107255319905969 -1 0 0
3534 902 2 0.5564 -0.4790825615441849 5.636421475807941 13.285367325525934 -1 0 0