LAMMPS data file via write_data, version 2 Aug 2023, timestep = 5250000, units = real

3232 atoms
4 atom types
1600 bonds
1 bond types
800 angles
1 angle types
0 impropers
1 improper types

-1.8420299999999998 30.08661 xlo xhi
-0.709 33.323 ylo yhi
-150 150 zlo zhi

Masses

1 15.9994
2 1.00794
3 12.0107
4 12.0107

Pair Coeffs # lj/cut/tip4p/long

1 0.1852 3.1589
2 0 0
3 0.0859 3.3997
4 0.0859 3.3997

Bond Coeffs # harmonic

1 5000 0.9572

Angle Coeffs # harmonic

1 500 104.52

Atoms # full

1 1 3 0 0 0 -13.028967241974486 0 0 0
2 1 3 0 -1.22802 0.709 -13.028967241974486 0 0 0
3 1 3 0 -1.22802 2.127 -13.028967241974486 0 0 0
4 1 3 0 0 2.836 -13.028967241974486 0 0 0
5 1 3 0 2.45605 0 -13.028967241974486 0 0 0
6 1 3 0 1.22802 0.709 -13.028967241974486 0 0 0
7 1 3 0 1.22802 2.127 -13.028967241974486 0 0 0
8 1 3 0 2.45605 2.836 -13.028967241974486 0 0 0
9 1 3 0 4.9121 0 -13.028967241974486 0 0 0
10 1 3 0 3.68407 0.709 -13.028967241974486 0 0 0
11 1 3 0 3.68407 2.127 -13.028967241974486 0 0 0
12 1 3 0 4.9121 2.836 -13.028967241974486 0 0 0
14 1 3 0 6.14012 0.709 -13.028967241974486 0 0 0
15 1 3 0 6.14012 2.127 -13.028967241974486 0 0 0
53 1 3 0 0 4.254 -13.028967241974486 0 0 0
54 1 3 0 -1.22802 4.963 -13.028967241974486 0 0 0
55 1 3 0 -1.22802 6.381 -13.028967241974486 0 0 0
56 1 3 0 0 7.09 -13.028967241974486 0 0 0
57 1 3 0 2.45605 4.254 -13.028967241974486 0 0 0
58 1 3 0 1.22802 4.963 -13.028967241974486 0 0 0
59 1 3 0 1.22802 6.381 -13.028967241974486 0 0 0
60 1 3 0 2.45605 7.09 -13.028967241974486 0 0 0
61 1 3 0 4.9121 4.254 -13.028967241974486 0 0 0
62 1 3 0 3.68407 4.963 -13.028967241974486 0 0 0
63 1 3 0 3.68407 6.381 -13.028967241974486 0 0 0
64 1 3 0 4.9121 7.09 -13.028967241974486 0 0 0
66 1 3 0 6.14012 4.963 -13.028967241974486 0 0 0
67 1 3 0 6.14012 6.381 -13.028967241974486 0 0 0
2260 477 2 0.5564 0.6707965439829481 5.262757195999546 -6.191654871251185 1 -1 0
2259 477 2 0.5564 0.3069212640460932 3.82758053518158 -5.875803940637584 1 -1 0
2258 477 1 -1.1128 0.05920492165074255 4.566569479079788 -6.431474299802169 1 -1 0
2183 452 1 -1.1128 13.769976109702046 4.334301840853824 -2.9820465871164274 0 0 0
2109 427 2 0.5564 3.3141380286450928 3.1770303601158263 -9.780383921007529 3 -3 0
2799 657 2 0.5564 13.635008901007383 -0.14961257330981537 -6.647953244787524 -1 2 0
872 15 1 -1.1128 2.762676504436116 6.220836333171111 -9.034783421682949 0 1 0
2215 462 2 0.5564 5.494553046466465 2.2158354064269488 -8.970889946991216 -1 3 0
2110 427 2 0.5564 2.5682200550769623 4.3696645370744305 -9.220801977640836 3 -3 0
2213 462 1 -1.1128 5.027590990546601 2.533437901963065 -9.743746823967658 -1 3 0
2108 427 1 -1.1128 2.4379546898750193 3.4754620557752647 -9.536503017095905 3 -3 0
2214 462 2 0.5564 5.331470489553667 3.4343580050586944 -9.854350589730883 -1 3 0
2863 678 2 0.5564 3.5428527109169154 6.767335399425319 -7.607675389502763 -1 -3 0
2224 465 2 0.5564 5.654640376428483 6.409737267851003 -9.686047661939806 2 5 0
2798 657 1 -1.1128 13.753962267547282 -0.1271994824287536 -5.698437106135511 -1 2 0
3083 752 1 -1.1128 0.48710270065312977 1.5872709764013595 -9.900451377613283 0 -4 0
1960 377 2 0.5564 4.579486730516997 -0.5467414022142342 -10.271632256151424 1 -1 0
3084 752 2 0.5564 0.2146364079649029 1.3447250140869338 -9.015482397715827 0 -4 0
2069 414 1 -1.1128 12.519125613050328 0.33283010709790023 -2.9842711460460496 -1 1 0
2439 537 2 0.5564 5.462434083888798 0.40926258179328456 -2.0360016299444412 3 -1 0
2440 537 2 0.5564 6.118834212779039 1.0646697629364947 -0.8395574359836673 3 -1 0
844 5 2 0.5564 13.169379600968341 4.559863210078731 -9.498045965677465 0 0 0
2333 502 1 -1.1128 6.634099472066325 4.982100619693408 -9.299394518704727 -1 1 0
3085 752 2 0.5564 1.3838311447275646 1.905618904138562 -9.79669007847142 0 -4 0
2507 560 1 -1.1128 13.644761936068587 6.248542321474923 -9.625159024828355 -4 0 0
2449 540 2 0.5564 0.6693506222172172 -0.5600666484532852 -1.4793016420818017 -2 1 0
1343 172 1 -1.1128 9.559957315634021 5.7314192099939305 -8.988140858241806 -1 0 0
3038 737 1 -1.1128 10.327303927444712 3.1283258650179024 -10.111549910103552 3 1 0
13 1 3 0 7.36814 0 -13.028967241974486 0 0 0
16 1 3 0 7.36814 2.836 -13.028967241974486 0 0 0
17 1 3 0 9.82419 0 -13.028967241974486 0 0 0
18 1 3 0 8.59617 0.709 -13.028967241974486 0 0 0
19 1 3 0 8.59617 2.127 -13.028967241974486 0 0 0
20 1 3 0 9.82419 2.836 -13.028967241974486 0 0 0
21 1 3 0 12.2802 0 -13.028967241974486 0 0 0
22 1 3 0 11.0522 0.709 -13.028967241974486 0 0 0
23 1 3 0 11.0522 2.127 -13.028967241974486 0 0 0
24 1 3 0 12.2802 2.836 -13.028967241974486 0 0 0
26 1 3 0 13.5083 0.709 -13.028967241974486 0 0 0
27 1 3 0 13.5083 2.127 -13.028967241974486 0 0 0
65 1 3 0 7.36814 4.254 -13.028967241974486 0 0 0
68 1 3 0 7.36814 7.09 -13.028967241974486 0 0 0
69 1 3 0 9.82419 4.254 -13.028967241974486 0 0 0
70 1 3 0 8.59617 4.963 -13.028967241974486 0 0 0
71 1 3 0 8.59617 6.381 -13.028967241974486 0 0 0
72 1 3 0 9.82419 7.09 -13.028967241974486 0 0 0
73 1 3 0 12.2802 4.254 -13.028967241974486 0 0 0
74 1 3 0 11.0522 4.963 -13.028967241974486 0 0 0
75 1 3 0 11.0522 6.381 -13.028967241974486 0 0 0
76 1 3 0 12.2802 7.09 -13.028967241974486 0 0 0
78 1 3 0 13.5083 4.963 -13.028967241974486 0 0 0
79 1 3 0 13.5083 6.381 -13.028967241974486 0 0 0
3039 737 2 0.5564 11.215609830909392 3.2726379414083415 -9.785484134670796 3 1 0
3040 737 2 0.5564 9.919459713105917 3.993973084155582 -10.08808320715612 3 1 0
1918 363 2 0.5564 9.490620913403806 1.8588966129821305 -8.870408211486762 2 0 0
1345 172 2 0.5564 10.196267391526497 5.696716359604122 -8.273900196562126 -1 0 0
1344 172 2 0.5564 9.806955894149326 6.506797003859612 -9.49213781197702 -1 0 0
2335 502 2 0.5564 6.3828769478543546 4.790053456003876 -8.395935368444466 -1 1 0
2184 452 2 0.5564 13.53269997814959 5.013941052603407 -3.6129391338974317 0 0 0
2836 669 2 0.5564 12.1722014893129 4.803883002159334 -6.81669141802675 3 -2 0
1717 296 2 0.5564 3.2458700313571125 7.702849369251847 -0.22321490388929044 1 -3 0
1444 205 2 0.5564 -0.9916236229183298 7.636719077138961 -7.147142372665446 -2 -1 0
916 29 2 0.5564 -1.632781645220591 5.756351151664469 -6.83340693154288 -3 1 0
1183 118 2 0.5564 12.888402332891248 0.6391387255451967 -9.050158115928662 -3 0 0
2447 540 1 -1.1128 1.33781289183513 -0.004005157555845398 -1.879543432885132 -2 1 0
933 35 2 0.5564 12.30656703586539 6.550653490609787 -4.598346914687545 -1 -2 0
2847 673 2 0.5564 -0.39123602571868044 3.2786011857699764 -9.668405269444815 0 1 0
851 8 1 -1.1128 13.558366766887595 2.30559438868967 -0.14271289529263964 1 2 0
2846 673 1 -1.1128 -0.7466378328095552 4.083620037444326 -9.291748243219114 0 1 0
934 35 2 0.5564 13.418117730569387 6.812969091799811 -5.592099431422401 -1 -2 0
2240 471 1 -1.1128 -0.5063319192321923 0.5867818311887385 -7.572470229931379 1 3 0
873 15 2 0.5564 3.52355052191896 6.588104983763894 -9.484692921231007 0 1 0
2848 673 2 0.5564 -0.4180751448180392 4.093401054022893 -8.39275719149678 0 1 0
1543 238 2 0.5564 2.7379854463417344 2.4147104656082514 -7.707920968566743 5 -1 0
1283 152 1 -1.1128 3.506802677279201 -0.4207525425311267 -7.429781312295346 1 2 0
1202 125 1 -1.1128 6.598492950354638 1.6665271246860003 -7.752484712044553 3 1 0
2693 622 1 -1.1128 1.4666229877527235 6.8217487671731405 -5.458795918469151 -3 0 0
1204 125 2 0.5564 6.509728115846666 0.9858741864665903 -7.085350114230841 3 1 0
874 15 2 0.5564 2.112899808342628 6.9235507534149505 -9.049448653752636 0 1 0
2536 569 2 0.5564 7.480860370160538 7.567984446160092 -1.4129448694663693 2 -3 0
3088 753 2 0.5564 -0.028034402748074172 3.186710144095765 -2.220246932298639 3 3 0
2592 588 2 0.5564 13.87528386623792 3.3671790598672424 -7.6033337689897635 0 -3 0
2861 678 1 -1.1128 3.9037529521568093 6.953418344514452 -6.740866842062729 -1 -3 0
2006 393 1 -1.1128 1.4779010292577457 6.19048326198884 -2.1117868667450086 0 0 0
2008 393 2 0.5564 2.2081764940489017 6.085266651888638 -1.5019835434876563 0 0 0
3087 753 2 0.5564 0.7036200624673657 3.076944645047319 -3.5410536663963925 3 3 0
3086 753 1 -1.1128 0.8018373672614605 3.401780569943437 -2.6460284854256106 3 3 0
2802 658 2 0.5564 0.3958046728279176 1.5643469516401287 -5.360339170098784 -1 -3 0
1725 299 2 0.5564 4.252296752060628 2.4559839108391164 -1.4431312757855732 0 -2 0
1726 299 2 0.5564 2.933270064689608 3.0511572476204636 -1.8879204412736263 0 -2 0
1724 299 1 -1.1128 3.669516380870276 3.200697679669416 -1.2947833206264865 0 -2 0
2007 393 2 0.5564 1.2737931942899556 5.300072696827625 -2.397693232039637 0 0 0
2801 658 1 -1.1128 0.8752212694578825 2.373755162523539 -5.183561560230464 -1 -3 0
2803 658 2 0.5564 1.7040584085444226 2.2686619317551466 -5.650698512967257 -1 -3 0
3024 732 2 0.5564 4.300237420340409 4.433589607997344 -2.7068017394801855 0 -3 0
1934 369 1 -1.1128 4.861747656520639 4.324381699046758 -6.658283580004802 -1 0 0
1659 277 2 0.5564 4.9874260455079 -0.10291052395179738 -6.2916184632815515 0 2 0
976 49 2 0.5564 8.955252313612819 4.674276861160558 -2.1137346679287012 -3 2 0
1936 369 2 0.5564 4.5454018646501195 5.2140491915564455 -6.815291655656038 -1 0 0
1541 238 1 -1.1128 2.967189471548691 2.169527024296541 -6.811492174366649 5 -1 0
1184 119 1 -1.1128 7.460381652000322 3.993432473517263 -3.1538729005939707 -1 -1 0
1935 369 2 0.5564 5.012722722109965 4.28654114270569 -5.71382178433682 -1 0 0
1542 238 2 0.5564 3.428502784013924 2.9330213483850693 -6.4643630463511474 5 -1 0
1285 152 2 0.5564 2.9888299178051314 0.3129364561535715 -7.098666041974085 1 2 0
1437 203 2 0.5564 6.991566144628562 2.8828699912205273 -6.26383813388759 -1 3 0
2438 537 1 -1.1128 5.291032899303741 1.0185660761207593 -1.3179427207952539 3 -1 0
2758 643 2 0.5564 11.722941262825627 1.9408067740113892 -3.1291634454074164 -1 2 0
3025 732 2 0.5564 4.780903086291464 5.588322538546802 -3.5597081481803916 0 -3 0
3023 732 1 -1.1128 4.651479969892416 4.6400047673052 -3.5729740815417155 0 -3 0
1163 112 1 -1.1128 5.78009441421817 7.477396256869812 -3.9405644908756794 -1 2 0
2508 560 2 0.5564 13.721828741503725 6.485723029934126 -8.70101688380376 -4 0 0
2241 471 2 0.5564 -1.31397825347709 0.7614688427716715 -7.089330540170403 1 3 0
2043 405 2 0.5564 8.676813303868597 -0.36751660122930624 -2.312455504746534 2 -1 0
2843 672 1 -1.1128 10.858176369089367 2.9396450020827176 -0.3059873356453405 -1 2 0
2591 588 1 -1.1128 13.922643798122367 3.7984457333224406 -6.750104934415917 0 -3 0
843 5 2 0.5564 13.002347158336386 3.348626919904846 -10.390742460906985 0 0 0
2334 502 2 0.5564 7.566896976731004 5.191070652350828 -9.249854993209517 -1 1 0
932 35 1 -1.1128 13.259778057041409 6.594943145299974 -4.673607866223912 -1 -2 0
2242 471 2 0.5564 -0.35559318897575654 -0.35136474123822276 -7.456748302478483 1 3 0
3010 727 2 0.5564 1.3141780976152075 1.6387289540101724 -0.540263889955142 1 2 0
2070 414 2 0.5564 13.345315948865116 0.3581528273615223 -2.5015645684886154 -1 1 0
2845 672 2 0.5564 11.6562664000085 3.022540447942828 -0.8279197377060976 -1 2 0
1185 119 2 0.5564 7.546364863485821 3.610643205609826 -4.026978361722583 -1 -1 0
1917 363 2 0.5564 9.435908503347795 1.749620728343059 -7.361447734355125 2 0 0
1916 363 1 -1.1128 9.258347100209939 1.2573992177649684 -8.162960692654744 2 0 0
1203 125 2 0.5564 7.515782444903721 1.620174876851644 -8.022056408116294 3 1 0
2695 622 2 0.5564 2.326457479569202 6.785804968328026 -5.8778796887089655 -3 0 0
2835 669 2 0.5564 10.83742598933548 5.302622398406579 -6.305292117539421 3 -2 0
2222 465 1 -1.1128 5.046204854375639 7.144166324135307 -9.604445089383118 2 5 0
2453 542 1 -1.1128 7.714228682134699 6.1679557729465495 -5.461820292849667 2 0 0
2454 542 2 0.5564 7.116164406266523 6.602304844607526 -4.853628873281475 2 0 0
1077 83 2 0.5564 10.404241967859276 3.444975927409931 -6.4505379531933285 -5 3 0
950 41 1 -1.1128 -0.9970769986131706 7.315437900316007 -3.6552145900377373 0 2 0
2969 714 1 -1.1128 -0.23892894486299393 -0.6963233990830299 -4.155763638687638 3 6 0
2455 542 2 0.5564 7.547566833956506 5.23377699601823 -5.3362494055741525 2 0 0
1181 118 1 -1.1128 13.529777517132766 0.36543269129154654 -8.394448512182358 -3 0 0
951 41 2 0.5564 -0.2673921456470765 6.735637815418756 -3.8734466890053083 0 2 0
1436 203 1 -1.1128 7.477105365719738 3.4325250511398213 -5.64872573490412 -1 3 0
2219 464 1 -1.1128 10.543950310179293 5.917137896825271 -4.679211299661756 4 0 0
2221 464 2 0.5564 10.265833990123626 5.4053178617396 -3.919655676474613 4 0 0
1674 282 2 0.5564 7.140984791339478 7.40728235911417 -6.660890555603039 -3 0 0
2834 669 1 -1.1128 11.244712789261044 4.856016577807852 -7.047513973895305 3 -2 0
975 49 2 0.5564 10.144379869421071 4.297251604719218 -1.2559898213674892 -3 2 0
1186 119 2 0.5564 6.54563694661088 4.270604251200025 -3.102374708005461 -1 -1 0
2071 414 2 0.5564 12.778221520175503 0.20599956276449555 -3.8969686233626137 -1 1 0
2220 464 2 0.5564 9.740856548968074 6.3287672073914445 -4.998329159903053 4 0 0
2041 404 2 0.5564 9.783514243604303 2.1939435127714604 -2.2141311373954307 1 1 0
2757 643 2 0.5564 12.305442102951355 3.3296097248719168 -3.2834853140072684 -1 2 0
1438 203 2 0.5564 8.397374208756322 3.2509916506207124 -5.83947209431732 -1 3 0
974 49 1 -1.1128 9.716111832088451 5.047316601073506 -1.6685727297293456 -3 2 0
853 8 2 0.5564 13.726666968234689 3.247344401773696 -0.17457885199146433 1 2 0
2749 640 2 0.5564 8.351188356871209 2.14822846428226 -0.12663745179421126 2 2 0
1078 83 2 0.5564 10.382162643801339 2.4148689003581643 -5.34135451349387 -5 3 0
2039 404 1 -1.1128 8.967855239529973 1.7031126688651346 -2.3142221049682434 1 1 0
1076 83 1 -1.1128 9.901085279532301 2.7019053035848017 -6.117503120533108 -5 3 0
2040 404 2 0.5564 8.39204597238143 2.291548498023464 -2.802506770442861 1 1 0
2756 643 1 -1.1128 11.496753134039178 2.830785137792971 -3.399366916615765 -1 2 0
2971 714 2 0.5564 0.3122361594165355 -0.40027557436523575 -3.4313279805785015 3 6 0
2694 622 2 0.5564 0.9385535303688464 7.368074208326427 -6.0409547539132005 -3 0 0
1420 197 2 0.5564 8.664293555861732 5.9753348840978475 -0.5322230437536379 -4 0 0
1362 178 2 0.5564 5.902076755633812 -0.47560360253244105 -4.063027251797544 0 0 0
2656 609 2 0.5564 10.29438203587636 -0.3512466106722395 -7.571559717484332 0 0 0
2223 465 2 0.5564 5.427536765475698 7.6970825592751275 -8.922460187182878 2 5 0
2245 472 2 0.5564 0.39251070154996776 6.654280222059803 -0.6484391626130965 -1 2 0
842 5 1 -1.1128 12.897013156528478 3.6423087978982753 -9.48581755244629 0 0 0
1658 277 1 -1.1128 5.804385958712525 -0.14533522050066203 -5.794618611128133 0 2 0
2448 540 2 0.5564 2.099053173231651 -0.5760808827655026 -1.9768901111102963 -2 1 0
2655 609 2 0.5564 11.538580395783077 -0.6998512660807776 -6.78267244105806 0 0 0
2827 666 2 0.5564 1.014742459655722 -0.6425379282135637 -10.020876363312532 4 1 0
2841 671 2 0.5564 3.8528226106800036 -0.3118529233436416 -0.29529172567238043 1 3 0
2638 603 2 0.5564 -0.0643730020383246 5.083695408352075 3.403021044047814 4 3 0
2282 485 1 -1.1128 3.019314300181812 1.8038929774003423 3.051467966257676 -2 0 0
2514 562 2 0.5564 3.7823869739178115 4.345850558316358 4.430746972567121 0 1 0
2636 603 1 -1.1128 -0.4961415205175581 4.269044868163254 3.660228555015567 4 3 0
486 2 4 0 8.59617 4.963 12.736959109302104 0 0 0
2513 562 1 -1.1128 2.953573252491726 4.036152550751303 4.795969410249195 0 1 0
2284 485 2 0.5564 3.9465547799843326 1.6102797022162518 2.913730842266039 -2 0 0
2515 562 2 0.5564 2.7441005790662483 3.2536431061278024 4.2860333066842715 0 1 0
2283 485 2 0.5564 2.6545310712508656 1.8711105819736118 2.169057959801389 -2 0 0
2358 510 2 0.5564 1.838429534598833 5.171673954930118 6.412884397649377 3 -1 0
2357 510 1 -1.1128 1.252626868753515 5.502253538117454 7.09390170500382 3 -1 0
3212 795 1 -1.1128 -1.1094193443719853 4.100494328111582 6.495377726070197 -1 -2 0
1191 121 2 0.5564 1.8188356746294359 5.04676992990959 2.111652150441346 -1 0 0
1190 121 1 -1.1128 2.1252002634835976 4.506031781227032 1.3836583099349204 -1 0 0
2932 701 2 0.5564 14.04382292315569 1.0826961777301838 3.060520242103092 -6 -1 0
2243 472 1 -1.1128 0.08182061990940084 6.945421531723662 0.20884902642942121 -1 2 0
1118 97 1 -1.1128 -0.1133895851260735 1.6665585867282062 5.165293980424244 1 0 0
1016 63 1 -1.1128 2.4042725605870183 1.0748306946251374 6.600799841640659 4 1 0
1119 97 2 0.5564 -0.04069669661980725 2.275389170924504 4.430260534180753 1 0 0
1120 97 2 0.5564 -0.3236673107970751 0.8252113538231289 4.760130810436502 1 0 0
1423 198 2 0.5564 4.635150823474558 2.363733841537051 6.905072682145697 3 1 0
1962 378 2 0.5564 6.360116134396986 6.393393694025464 9.41706772459298 -1 3 0
1017 63 2 0.5564 1.5523390667133925 1.1769392167152533 6.17651633939803 4 1 0
2726 633 1 -1.1128 -1.6496032821496984 2.021808624557668 0.5992956857685062 -1 0 0
2359 510 2 0.5564 0.484083190033853 4.933666812806713 7.046125606397828 3 -1 0
3214 795 2 0.5564 -0.7205727413292522 3.9347753385321314 5.636558923287046 -1 -2 0
1018 63 2 0.5564 2.819713542602454 0.35000318727567487 6.13360154926106 4 1 0
1575 249 2 0.5564 4.874183337711314 4.897539824089683 0.47913377554398395 -1 0 0
3188 787 1 -1.1128 5.574266494641125 2.1317081104876547 1.7169099403063723 1 0 0
1574 249 1 -1.1128 5.786099885271633 4.83284751123529 0.7627808146082447 -1 0 0
1840 337 2 0.5564 13.960868867614995 5.27637443484328 8.388659718001023 2 0 0
2842 671 2 0.5564 2.4884891642539078 0.05296781472272433 0.2500488695638807 1 3 0
852 8 2 0.5564 13.868590394131902 2.0354763013432864 0.7215985391438705 1 2 0
3190 787 2 0.5564 5.3855678091532955 2.9048888174195806 1.185102237595047 1 0 0
3189 787 2 0.5564 6.368056402341264 1.7622617465071824 1.3300718797850595 1 0 0
1786 319 2 0.5564 6.295938662028641 5.57773941550101 3.635408327975946 1 4 0
2664 612 2 0.5564 11.195103870154167 7.726668891628501 9.399154065569293 -2 -1 0
1784 319 1 -1.1128 5.39858685706821 5.2480660008463325 3.587375099819558 1 4 0
2239 470 2 0.5564 10.422636585291844 -0.1516715821493563 6.343564181129057 1 0 0
2488 553 2 0.5564 1.3481352930045754 7.063027242708211 6.798648408037533 0 0 0
1774 315 2 0.5564 13.689535628070324 -0.373270087174006 1.2857260235964858 -5 -2 0
1422 198 2 0.5564 4.983225455660823 1.0474602741225356 6.243132365513198 3 1 0
1576 249 2 0.5564 5.741876433545268 4.850300087966819 1.7188004834481438 -1 0 0
2886 686 2 0.5564 0.4429575612480359 6.922485291423244 2.039654085042146 -4 -3 0
2885 686 1 -1.1128 0.7488821335303667 6.7624539882535055 2.9324247119886593 -4 -3 0
1785 319 2 0.5564 4.890691771759266 5.983617749630388 3.2449710271648433 1 4 0
2637 603 2 0.5564 -1.3850162709834477 4.348914511321576 3.3141673709292925 4 3 0
1716 296 2 0.5564 3.1463794074401292 6.914517381073229 1.0654024018696877 1 -3 0
3018 730 2 0.5564 4.454967588349358 7.420107344379751 9.02318338654353 0 -1 0
2106 426 2 0.5564 -1.3951875458286767 3.3607015944539236 8.4126379734703 -1 3 0
1943 372 1 -1.1128 11.849313363987498 7.159494767709329 1.676407140594205 2 0 0
3012 728 2 0.5564 4.708302516896507 0.9895215848037564 8.558210701383254 1 -3 0
3008 727 1 -1.1128 1.110842939605229 1.9903601496033672 0.3264790402600788 1 2 0
2840 671 1 -1.1128 3.1115401927102186 -0.6713757129759906 0.19202486720737083 1 3 0
1944 372 2 0.5564 12.17741572037776 7.779023625266366 2.328147452849136 2 0 0
3213 795 2 0.5564 -1.5119623549712606 4.965092862656824 6.4137623163117565 -1 -2 0
2663 612 1 -1.1128 12.148827506573483 7.647929449699562 9.377993587268378 -2 -1 0
1945 372 2 0.5564 12.527971556208714 7.139081810233948 1.0016933115785815 2 0 0
2727 633 2 0.5564 -0.6943475147573561 2.0827782917849156 0.6005833883277781 -1 0 0
2150 441 1 -1.1128 3.5051072652779385 7.309532144199766 2.748269901806747 2 1 0
2342 505 1 -1.1128 12.657979596792273 4.430357569496283 4.4371347510348595 -3 -1 0
1465 212 2 0.5564 11.573682881307137 5.405680375545821 1.7784777366013274 2 -4 0
495 2 4 0 13.5083 6.381 12.736959109302104 0 0 0
3203 792 1 -1.1128 4.098157513960271 -0.5230404929195844 5.399339025129904 1 4 0
2237 470 1 -1.1128 10.066705415200651 0.6267946146473615 5.915153320857432 1 0 0
3047 740 1 -1.1128 10.237818193367644 6.883010701297669 6.636903185074798 -2 -1 0
1421 198 1 -1.1128 5.368120207056502 1.771522714640825 6.736917309936303 3 1 0
849 7 2 0.5564 11.478603086936623 0.8276611396538092 4.797774630823813 2 -1 0
996 56 2 0.5564 13.271422926324592 1.5711687207597023 7.614968644449971 3 -2 0
2343 505 2 0.5564 12.038853880057212 4.483755811130942 5.165190733931389 -3 -1 0
2878 683 2 0.5564 8.314652111320058 3.6777212323096595 3.4434461390381674 2 0 0
1748 307 1 -1.1128 10.690952894665672 0.7097309765774859 1.5325506205330441 1 -3 0
1749 307 2 0.5564 10.941128374681659 1.3559572831228308 0.8722190659632175 1 -3 0
1750 307 2 0.5564 11.185715113152247 0.96001156154264 2.312810823695461 1 -3 0
1823 332 1 -1.1128 7.18557014900668 2.1033417418663523 4.194952928628068 1 1 0
1825 332 2 0.5564 6.511853776857899 2.14015104953987 3.5159940931315656 1 1 0
1419 197 2 0.5564 7.282979017686748 5.841314091440214 0.07268321954620584 -4 0 0
1740 304 2 0.5564 9.153022516831637 1.7655516490435998 7.4186420250243135 0 0 0
848 7 1 -1.1128 11.887671642042566 1.2338211447068657 4.033619382659109 2 -1 0
850 7 2 0.5564 12.330676935576433 2.0077421048924475 4.381507777173657 2 -1 0
2149 440 2 0.5564 7.5306282629709145 5.173975230057971 6.325202489718512 3 1 0
2147 440 1 -1.1128 8.014676422333912 5.695309369978628 5.684779717206189 3 1 0
1276 149 2 0.5564 10.806914803783506 5.118858644427522 6.615120129019568 0 -1 0
1739 304 1 -1.1128 9.286384307096258 2.1119085720843507 8.300959258906603 0 0 0
1274 149 1 -1.1128 11.142920272236866 4.223359155985434 6.652770435191675 0 -1 0
2151 441 2 0.5564 2.6046926124723537 7.0811700437758365 2.9792243793970568 2 1 0
1275 149 2 0.5564 10.421248582974266 3.711406117837617 7.017909202949601 0 -1 0
2148 440 2 0.5564 8.858889115015764 5.86541291026642 6.102637910559057 3 1 0
1464 212 2 0.5564 10.321400080816526 4.628103814044394 2.123525618747827 2 -4 0
2877 683 2 0.5564 8.38845666539184 5.066264388325534 4.042108529977779 2 0 0
2876 683 1 -1.1128 8.457617368736353 4.595356835455415 3.2116277057642324 2 0 0
2344 505 2 0.5564 12.107011050634103 4.407965476155037 3.6547236628658997 -3 -1 0
1824 332 2 0.5564 6.713880130871764 2.2725014921164957 5.010505650480442 1 1 0
1463 212 1 -1.1128 11.222377860132646 4.5162589971636935 1.8202733024293851 2 -4 0
2380 517 2 0.5564 -1.6694564502329186 1.8605064637604904 6.062563975864826 2 1 0
2463 545 2 0.5564 8.635159924792378 7.324682553493099 9.303308186273787 2 1 0
1961 378 1 -1.1128 7.313346353981973 6.394111417058199 9.329981957327824 -1 3 0
2844 672 2 0.5564 11.025895237048628 3.4678214730055905 0.47448286966893294 -1 2 0
1773 315 2 0.5564 12.484254667490747 -0.6917129542898195 0.4267798254490274 -5 -2 0
1741 304 2 0.5564 9.475362843176137 1.3406829181424131 8.835497435654876 0 0 0
2181 451 2 0.5564 6.058687916444283 -0.5030156675133065 9.733392727880206 -2 2 0
2748 640 2 0.5564 8.61252662145775 1.1489809534952604 0.9802058823359641 2 2 0
2124 432 2 0.5564 7.853915419925479 0.09098504747614294 4.111045167851912 -2 0 0
434 2 4 0 8.59617 0.709 12.736959109302104 0 0 0
3009 727 2 0.5564 1.5290100947793317 2.8512770081742396 0.3403455207187994 1 2 0
3049 740 2 0.5564 10.283867486895037 7.594373212264793 5.998094228260128 -2 -1 0
2105 426 1 -1.1128 -1.2131360155205901 3.533527269643725 9.336337487425322 -1 3 0
2107 426 2 0.5564 -0.2966976045551381 3.282271561081685 9.451417963720742 -1 3 0
3019 730 2 0.5564 3.742616938858619 6.206175273730161 9.580697966892956 0 -1 0
937 36 2 0.5564 2.1073957740055778 3.4029972313776726 8.666138947457021 -1 1 0
935 36 1 -1.1128 1.4668966649949464 2.716821437172412 8.85364116842167 -1 1 0
936 36 2 0.5564 1.5255016047832015 2.1228541596228747 8.105307366195323 -1 1 0
1638 270 2 0.5564 1.7483815648360883 5.49219867005578 8.92977792112416 2 1 0
1637 270 1 -1.1128 2.104007256312318 5.443633072203024 9.817137060979729 2 1 0
1639 270 2 0.5564 1.3522080235977714 5.608156606370127 10.38631389606645 2 1 0
482 2 4 0 6.14012 4.963 12.736959109302104 0 0 0
480 2 4 0 4.9121 7.09 12.736959109302104 0 0 0
483 2 4 0 6.14012 6.381 12.736959109302104 0 0 0
417 2 4 0 0 0 12.736959109302104 0 0 0
418 2 4 0 -1.22802 0.709 12.736959109302104 0 0 0
419 2 4 0 -1.22802 2.127 12.736959109302104 0 0 0
420 2 4 0 0 2.836 12.736959109302104 0 0 0
421 2 4 0 2.45605 0 12.736959109302104 0 0 0
422 2 4 0 1.22802 0.709 12.736959109302104 0 0 0
423 2 4 0 1.22802 2.127 12.736959109302104 0 0 0
424 2 4 0 2.45605 2.836 12.736959109302104 0 0 0
425 2 4 0 4.9121 0 12.736959109302104 0 0 0
426 2 4 0 3.68407 0.709 12.736959109302104 0 0 0
427 2 4 0 3.68407 2.127 12.736959109302104 0 0 0
428 2 4 0 4.9121 2.836 12.736959109302104 0 0 0
430 2 4 0 6.14012 0.709 12.736959109302104 0 0 0
431 2 4 0 6.14012 2.127 12.736959109302104 0 0 0
469 2 4 0 0 4.254 12.736959109302104 0 0 0
470 2 4 0 -1.22802 4.963 12.736959109302104 0 0 0
471 2 4 0 -1.22802 6.381 12.736959109302104 0 0 0
472 2 4 0 0 7.09 12.736959109302104 0 0 0
473 2 4 0 2.45605 4.254 12.736959109302104 0 0 0
474 2 4 0 1.22802 4.963 12.736959109302104 0 0 0
475 2 4 0 1.22802 6.381 12.736959109302104 0 0 0
476 2 4 0 2.45605 7.09 12.736959109302104 0 0 0
477 2 4 0 4.9121 4.254 12.736959109302104 0 0 0
478 2 4 0 3.68407 4.963 12.736959109302104 0 0 0
479 2 4 0 3.68407 6.381 12.736959109302104 0 0 0
1292 155 1 -1.1128 4.014935498103139 3.974857515301142 7.770271081096913 -1 3 0
3017 730 1 -1.1128 4.528651533609617 6.468992565003122 9.101830224414677 0 -1 0
491 2 4 0 11.0522 6.381 12.736959109302104 0 0 0
1294 155 2 0.5564 3.6247640164092627 4.222895913623342 6.932133074583937 -1 3 0
3052 741 2 0.5564 3.4613710767945864 -0.5647950663078871 9.350572799569669 3 3 0
2053 408 2 0.5564 6.492270606859602 3.5811717417511675 7.855573593556646 -2 1 0
435 2 4 0 8.59617 2.127 12.736959109302104 0 0 0
2887 686 2 0.5564 0.17893690983653512 7.300848482672427 3.4815420361871943 -4 -3 0
2267 480 1 -1.1128 -1.3468074065540352 -0.6061428680499 4.439469334483976 2 1 0
437 2 4 0 12.2802 0 12.736959109302104 0 0 0
1388 187 1 -1.1128 9.719417810217351 -0.30742435518634714 9.326238544582448 1 1 0
439 2 4 0 11.0522 2.127 12.736959109302104 0 0 0
429 2 4 0 7.36814 0 12.736959109302104 0 0 0
492 2 4 0 12.2802 7.09 12.736959109302104 0 0 0
1963 378 2 0.5564 7.5197716721827 5.542553124534012 8.944663211968297 -1 3 0
2747 640 1 -1.1128 7.90754232623791 1.5385789729902848 0.46305641239355966 2 2 0
438 2 4 0 11.0522 0.709 12.736959109302104 0 0 0
2665 612 2 0.5564 12.311020686012423 6.705341900970065 9.339830732634235 -2 -1 0
481 2 4 0 7.36814 4.254 12.736959109302104 0 0 0
442 2 4 0 13.5083 0.709 12.736959109302104 0 0 0
432 2 4 0 7.36814 2.836 12.736959109302104 0 0 0
433 2 4 0 9.82419 0 12.736959109302104 0 0 0
2659 610 2 0.5564 12.24028419823122 0.3764093514546731 9.770160901263253 2 0 0
3011 728 1 -1.1128 4.375935615898328 1.1082289856128416 9.447972381001719 1 -3 0
3013 728 2 0.5564 3.6299978088402507 1.6997802868861533 9.348582520315897 1 -3 0
2052 408 2 0.5564 7.893865612317629 3.2543987211123757 8.325308948602787 -2 1 0
1293 155 2 0.5564 4.191313443346619 4.807318980184821 8.208600367799981 -1 3 0
2658 610 2 0.5564 13.727053433201615 0.38633927376632116 9.485002642575948 2 0 0
2051 408 1 -1.1128 7.326428200373686 3.988289242876802 8.089389133634274 -2 1 0
490 2 4 0 11.0522 4.963 12.736959109302104 0 0 0
440 2 4 0 12.2802 2.836 12.736959109302104 0 0 0
1379 184 1 -1.1128 12.449098334039112 4.919181982759362 9.203309044487145 1 -3 0
485 2 4 0 9.82419 4.254 12.736959109302104 0 0 0
443 2 4 0 13.5083 2.127 12.736959109302104 0 0 0
494 2 4 0 13.5083 4.963 12.736959109302104 0 0 0
489 2 4 0 12.2802 4.254 12.736959109302104 0 0 0
484 2 4 0 7.36814 7.09 12.736959109302104 0 0 0
1381 184 2 0.5564 12.380510089204424 4.130225361053138 9.740966324806479 1 -3 0
1380 184 2 0.5564 11.883570271656637 4.746538521128098 8.450576675658658 1 -3 0
2657 610 1 -1.1128 12.922687727728418 0.8805807888544949 9.327025290105622 2 0 0
488 2 4 0 9.82419 7.09 12.736959109302104 0 0 0
436 2 4 0 9.82419 2.836 12.736959109302104 0 0 0
487 2 4 0 8.59617 6.381 12.736959109302104 0 0 0
995 56 1 -1.1128 13.64009261260505 2.0533870355607546 6.874843386348773 3 -2 0
1418 197 1 -1.1128 8.025416426433653 6.4418678834768555 0.006682721892930295 -4 0 0
2179 450 2 0.5564 7.228745235996683 7.374364593962449 5.840565028517067 -1 -1 0
3048 740 2 0.5564 9.94888421136737 7.305266310770393 7.445888201060283 -2 -1 0
1192 121 2 0.5564 2.2849030871360174 5.127706426498187 0.6735541511584433 -1 0 0
2238 470 2 0.5564 9.372456264153897 0.29207014886545574 5.347516789460365 1 0 0
997 56 2 0.5564 13.088619075014938 2.8318785001736946 6.796988038365774 3 -2 0
2728 633 2 0.5564 -1.831858999695541 1.1052676776325452 0.806583396716797 -1 0 0
1715 296 1 -1.1128 3.211735411592055 6.808545225170293 0.11633060145095811 1 -3 0
2602 591 2 0.5564 -1.7206731377990643 -0.5685481936070155 2.647598828471498 -1 -3 0
1885 352 2 0.5564 9.109200827681542 7.7337306594885 1.030985830376218 -4 -2 0
1390 187 2 0.5564 8.85095746520182 -0.6750752342497606 9.490073953705105 1 1 0
105 1 3 0 0 8.508 -13.028967241974486 0 0 0
106 1 3 0 -1.22802 9.217 -13.028967241974486 0 0 0
107 1 3 0 -1.22802 10.635 -13.028967241974486 0 0 0
108 1 3 0 0 11.344 -13.028967241974486 0 0 0
109 1 3 0 2.45605 8.508 -13.028967241974486 0 0 0
110 1 3 0 1.22802 9.217 -13.028967241974486 0 0 0
111 1 3 0 1.22802 10.635 -13.028967241974486 0 0 0
112 1 3 0 2.45605 11.344 -13.028967241974486 0 0 0
113 1 3 0 4.9121 8.508 -13.028967241974486 0 0 0
114 1 3 0 3.68407 9.217 -13.028967241974486 0 0 0
115 1 3 0 3.68407 10.635 -13.028967241974486 0 0 0
116 1 3 0 4.9121 11.344 -13.028967241974486 0 0 0
118 1 3 0 6.14012 9.217 -13.028967241974486 0 0 0
119 1 3 0 6.14012 10.635 -13.028967241974486 0 0 0
157 1 3 0 0 12.762 -13.028967241974486 0 0 0
158 1 3 0 -1.22802 13.471 -13.028967241974486 0 0 0
159 1 3 0 -1.22802 14.889 -13.028967241974486 0 0 0
160 1 3 0 0 15.598 -13.028967241974486 0 0 0
161 1 3 0 2.45605 12.762 -13.028967241974486 0 0 0