LAMMPS data file via write_data, version 2 Aug 2023, timestep = 7500000, units = real

3232 atoms
4 atom types
1600 bonds
1 bond types
800 angles
1 angle types
0 impropers
1 improper types

-1.8420299999999998 30.08661 xlo xhi
-0.709 33.323 ylo yhi
-150 150 zlo zhi

Masses

1 15.9994
2 1.00794
3 12.0107
4 12.0107

Pair Coeffs # lj/cut/tip4p/long

1 0.1852 3.1589
2 0 0
3 0.0859 3.3997
4 0.0859 3.3997

Bond Coeffs # harmonic

1 5000 0.9572

Angle Coeffs # harmonic

1 500 104.52

Atoms # full

1 1 3 0 0 0 -13.028967241974486 0 0 0
2 1 3 0 -1.22802 0.709 -13.028967241974486 0 0 0
3 1 3 0 -1.22802 2.127 -13.028967241974486 0 0 0
4 1 3 0 0 2.836 -13.028967241974486 0 0 0
5 1 3 0 2.45605 0 -13.028967241974486 0 0 0
6 1 3 0 1.22802 0.709 -13.028967241974486 0 0 0
7 1 3 0 1.22802 2.127 -13.028967241974486 0 0 0
8 1 3 0 2.45605 2.836 -13.028967241974486 0 0 0
9 1 3 0 4.9121 0 -13.028967241974486 0 0 0
10 1 3 0 3.68407 0.709 -13.028967241974486 0 0 0
11 1 3 0 3.68407 2.127 -13.028967241974486 0 0 0
12 1 3 0 4.9121 2.836 -13.028967241974486 0 0 0
14 1 3 0 6.14012 0.709 -13.028967241974486 0 0 0
15 1 3 0 6.14012 2.127 -13.028967241974486 0 0 0
53 1 3 0 0 4.254 -13.028967241974486 0 0 0
54 1 3 0 -1.22802 4.963 -13.028967241974486 0 0 0
55 1 3 0 -1.22802 6.381 -13.028967241974486 0 0 0
56 1 3 0 0 7.09 -13.028967241974486 0 0 0
57 1 3 0 2.45605 4.254 -13.028967241974486 0 0 0
58 1 3 0 1.22802 4.963 -13.028967241974486 0 0 0
59 1 3 0 1.22802 6.381 -13.028967241974486 0 0 0
60 1 3 0 2.45605 7.09 -13.028967241974486 0 0 0
61 1 3 0 4.9121 4.254 -13.028967241974486 0 0 0
62 1 3 0 3.68407 4.963 -13.028967241974486 0 0 0
63 1 3 0 3.68407 6.381 -13.028967241974486 0 0 0
64 1 3 0 4.9121 7.09 -13.028967241974486 0 0 0
66 1 3 0 6.14012 4.963 -13.028967241974486 0 0 0
67 1 3 0 6.14012 6.381 -13.028967241974486 0 0 0
1792 321 2 0.5564 11.594743057839466 7.403365635510264 -0.8866759951761178 2 0 0
2256 476 2 0.5564 7.233500798713943 5.0576964582116135 -6.951026952233032 -5 2 0
1427 200 1 -1.1128 1.1854783469461376 4.066839968725517 -9.45988517907318 3 1 0
1429 200 2 0.5564 1.5816005991750206 3.93266413436022 -8.598886303231069 3 1 0
3032 735 1 -1.1128 5.577224412009943 5.7548546222649275 -9.547837478265322 0 1 0
1428 200 2 0.5564 1.486219133903088 3.322414535736185 -9.981058031431909 3 1 0
2257 476 2 0.5564 6.689594832961152 4.251838475203468 -5.790571806184134 -5 2 0
2255 476 1 -1.1128 6.869529313289825 5.149338660586068 -6.070481555132587 -5 2 0
2152 441 2 0.5564 2.1627438807081414 -0.49703310943951445 -10.486158324253406 1 1 0
2247 473 2 0.5564 -0.01471708770162611 1.8207654285562147 -4.075496445803816 -1 4 0
3143 772 1 -1.1128 3.0292093427662237 6.358974809910021 -9.887128459971448 5 3 0
1644 272 2 0.5564 3.5401743381573128 2.0026376729670443 -9.957505673830982 5 3 0
3145 772 2 0.5564 2.4235927330693348 5.617717484017303 -9.887498980495593 5 3 0
1645 272 2 0.5564 2.353599863537638 1.366452812848565 -9.265257945705768 5 3 0
1643 272 1 -1.1128 2.7533019033147683 1.4846088790222627 -10.12694831221273 5 3 0
1155 109 2 0.5564 4.227236014579445 6.506946774130055 -7.38195261162148 -1 2 0
3190 787 2 0.5564 10.421154456201165 1.2553648631629393 -1.0428429155085035 3 0 0
1465 212 2 0.5564 5.339024791779372 3.8403220047292366 -9.250147287755171 2 -5 0
1464 212 2 0.5564 5.572303366135152 2.3460147708497945 -9.182852982592152 2 -5 0
1463 212 1 -1.1128 4.891629661004982 3.0112270760173034 -9.080815278061483 2 -5 0
2173 448 2 0.5564 3.546500036594803 3.1958992193477656 -7.520447355769019 1 2 0
3034 735 2 0.5564 4.6851173799114045 6.060183733070925 -9.712634835096477 0 1 0
2172 448 2 0.5564 3.059759460251365 4.041830759003762 -6.363131660945292 1 2 0
3144 772 2 0.5564 2.466801812339187 7.12841249095116 -9.975986940817041 5 3 0
2980 717 2 0.5564 13.51001325928608 3.906428238629309 -9.598748604633903 2 2 0
2832 668 2 0.5564 7.739678695086589 3.216534862104133 -8.303368025247595 1 1 0
2850 674 2 0.5564 10.136241307759752 -0.07568758914459853 -3.194742151794537 0 1 0
1378 183 2 0.5564 10.020561953241106 4.3689264797777145 -5.920408004158544 4 6 0
2833 668 2 0.5564 7.697016337793291 4.651419718574052 -8.784182378350895 1 1 0
13 1 3 0 7.36814 0 -13.028967241974486 0 0 0
16 1 3 0 7.36814 2.836 -13.028967241974486 0 0 0
17 1 3 0 9.82419 0 -13.028967241974486 0 0 0
18 1 3 0 8.59617 0.709 -13.028967241974486 0 0 0
19 1 3 0 8.59617 2.127 -13.028967241974486 0 0 0
20 1 3 0 9.82419 2.836 -13.028967241974486 0 0 0
21 1 3 0 12.2802 0 -13.028967241974486 0 0 0
22 1 3 0 11.0522 0.709 -13.028967241974486 0 0 0
23 1 3 0 11.0522 2.127 -13.028967241974486 0 0 0
24 1 3 0 12.2802 2.836 -13.028967241974486 0 0 0
26 1 3 0 13.5083 0.709 -13.028967241974486 0 0 0
27 1 3 0 13.5083 2.127 -13.028967241974486 0 0 0
65 1 3 0 7.36814 4.254 -13.028967241974486 0 0 0
68 1 3 0 7.36814 7.09 -13.028967241974486 0 0 0
69 1 3 0 9.82419 4.254 -13.028967241974486 0 0 0
70 1 3 0 8.59617 4.963 -13.028967241974486 0 0 0
71 1 3 0 8.59617 6.381 -13.028967241974486 0 0 0
72 1 3 0 9.82419 7.09 -13.028967241974486 0 0 0
73 1 3 0 12.2802 4.254 -13.028967241974486 0 0 0
74 1 3 0 11.0522 4.963 -13.028967241974486 0 0 0
75 1 3 0 11.0522 6.381 -13.028967241974486 0 0 0
76 1 3 0 12.2802 7.09 -13.028967241974486 0 0 0
78 1 3 0 13.5083 4.963 -13.028967241974486 0 0 0
79 1 3 0 13.5083 6.381 -13.028967241974486 0 0 0
1019 64 1 -1.1128 11.227382901049138 6.185359744316747 -9.714018121803807 -3 3 0
2831 668 1 -1.1128 8.095652011999581 4.086433698732984 -8.122281591814746 1 1 0
1021 64 2 0.5564 10.808511786900507 5.397726961235724 -9.367010336358376 -3 3 0
1020 64 2 0.5564 10.604724204921414 6.888884649054887 -9.530763310946238 -3 3 0
1386 186 2 0.5564 9.401235424761492 3.060529046076768 -7.411903606531914 8 -5 0
1385 186 1 -1.1128 10.232876738503748 2.7742143039761684 -7.034237051413204 8 -5 0
1387 186 2 0.5564 10.008163126369126 2.000077901562421 -6.518046625595705 8 -5 0
1454 209 1 -1.1128 7.309220903073019 1.5704735749174823 -9.192980723816351 -1 4 0
883 18 2 0.5564 10.625218985967566 1.8471196251221083 -9.685504371123319 -4 -2 0
2979 717 2 0.5564 13.449650138365904 5.32539108465869 -10.122960324356729 2 2 0
1456 209 2 0.5564 8.202763608227391 1.437261534363736 -9.50931731115899 -1 4 0
1455 209 2 0.5564 6.9671855541898084 0.686320309004391 -9.060617477388089 -1 4 0
881 18 1 -1.1128 9.959852762895844 1.1956274309056434 -9.907041296276068 -4 -2 0
882 18 2 0.5564 10.4075545314227 0.35457540509689767 -9.815239154056828 -4 -2 0
3033 735 2 0.5564 6.111935060836752 6.5481857339537095 -9.57864560250217 0 1 0
1438 203 2 0.5564 13.25674465187573 5.680611284961419 -6.366868460448024 -2 5 0
2361 511 2 0.5564 1.7289927646229155 2.6887917775121486 -0.31079458800978355 2 -1 0
2959 710 2 0.5564 1.1813200048973531 6.947191374227003 -6.839115178086654 -2 -3 0
2091 421 2 0.5564 0.4520811787247479 3.0177869715008256 -6.112836104415538 2 -3 0
2561 578 1 -1.1128 1.4442508858992507 1.0731085746451967 -7.815840822682893 3 0 0
1583 252 1 -1.1128 -0.4016931875511445 3.973947108568386 -2.3176004320517456 3 0 0
2975 716 1 -1.1128 1.5905714205986023 1.62028801250788 -5.135727243774959 -2 0 0
2313 495 2 0.5564 3.524714636596333 0.40713852375362813 -0.335009999603258 3 4 0
2368 513 2 0.5564 1.213300220012838 6.731976018804418 -1.138724786002761 -1 -3 0
3062 745 1 -1.1128 8.744461363041237 1.2608894777124282 -5.472030859327017 7 3 0
3023 732 1 -1.1128 4.233324057362519 5.900353996562307 -2.5272630366225144 -1 -5 0
3025 732 2 0.5564 3.4143466921960393 6.271236316768995 -2.1986953109784975 -1 -5 0
1638 270 2 0.5564 13.424752370736414 7.318500530834339 -5.511817249827127 2 1 0
2092 421 2 0.5564 0.15772078481764507 4.42665711433266 -6.582232089786619 2 -3 0
1436 203 1 -1.1128 13.427172876928648 6.4027996839165615 -6.971543584630204 -2 5 0
2562 578 2 0.5564 0.5082594569549451 1.065002932661881 -8.016062956806524 3 0 0
2563 578 2 0.5564 1.5082062150185571 1.5471058571799685 -6.986701882446999 3 0 0
2171 448 1 -1.1128 2.7490097961665554 3.5308286603949504 -7.110490171565505 1 2 0
2170 447 2 0.5564 0.2979681303459269 7.0947297160008445 -4.502632968037039 -1 -3 0
1076 83 1 -1.1128 13.203297216432928 -0.681578724147161 -7.520356713173087 -4 6 0
3005 726 1 -1.1128 3.3941906355180853 1.8123921150462152 -2.9039721447682196 6 0 0
1078 83 2 0.5564 13.081758076533283 -0.17069181178320847 -6.720069190089088 -4 6 0
1144 105 2 0.5564 4.900870012369022 3.7204397242858103 -4.7669383964263705 2 -1 0
2362 511 2 0.5564 1.3132940330672582 3.6522256735815866 -1.4020754002649052 2 -1 0
1143 105 2 0.5564 4.090932632950666 4.758744675661009 -4.02006098710181 2 -1 0
1142 105 1 -1.1128 4.001897413342524 4.007167117568555 -4.6060980075565405 2 -1 0
2360 511 1 -1.1128 2.0735223739778954 3.188592492367348 -1.0508843295127404 2 -1 0
3006 726 2 0.5564 3.3745970967530883 2.526656533404886 -3.5408997699013667 6 0 0
1488 220 2 0.5564 8.910752469844702 -0.049219328026927196 -1.3749474199918126 -4 -1 0
1154 109 1 -1.1128 4.423027429149325 6.808798196153677 -6.494943425874388 -1 2 0
3007 726 2 0.5564 2.8747358530532794 2.1337204462106154 -2.1669867341082316 6 0 0
3024 732 2 0.5564 4.73514316471685 6.657206257820136 -2.829900616768134 -1 -5 0
2849 674 1 -1.1128 10.76903709198939 -0.5391599124939863 -3.7433763691129784 0 1 0
2312 495 1 -1.1128 3.0795814243194806 -0.4053832038883313 -0.5756394785575624 3 4 0
2958 710 2 0.5564 2.4172860201713107 6.303331829765226 -6.247735783220114 -2 -3 0
1877 350 1 -1.1128 12.681170527905751 0.9839528299034352 -5.3686334687388255 2 2 0
2957 710 1 -1.1128 1.4668598472618597 6.205503977981323 -6.305636050012045 -2 -3 0
1156 109 2 0.5564 5.0187886865126545 6.147678779066235 -6.142488835249663 -1 2 0
3164 779 1 -1.1128 4.379205901865868 0.550538302130222 -5.7919624548878765 -1 2 0
2122 431 2 0.5564 5.731746944359832 1.7864854057819601 -5.583675253145922 1 3 0
2120 431 1 -1.1128 6.2502494542541305 2.5815552947045717 -5.460160795117064 1 3 0
2950 707 2 0.5564 4.7805867589737145 4.853700118070132 -1.127406293523738 1 0 0
2058 410 2 0.5564 -1.6011609937033349 0.5823319034574583 -7.499845098906355 1 0 0
2977 716 2 0.5564 1.3389349517287723 0.7826361601865971 -5.524638939747654 -2 0 0
3166 779 2 0.5564 4.482062596633556 0.017587215090697696 -6.580390709888572 -1 2 0
2090 421 1 -1.1128 -0.2656342339580031 3.63719690237188 -6.244947739908016 2 -3 0
2718 630 2 0.5564 -1.828818173788801 7.279692108854709 -3.216583851398809 0 5 0
2366 513 1 -1.1128 1.3658928071036882 7.536629102863836 -1.634187337208321 -1 -3 0
2075 416 1 -1.1128 0.5895314020284209 -0.45761313252621166 -1.870335327865627 -1 2 0
2077 416 2 0.5564 1.5418939415505433 -0.4999213925791009 -1.956664500921176 -1 2 0
2347 506 2 0.5564 -0.17386550073732948 5.169736206242946 -1.01721955515139 6 0 0
2169 447 2 0.5564 0.19944972142503592 6.876012084874661 -3.0078570751373 -1 -3 0
1425 199 2 0.5564 13.947256242517405 4.3668696553504 -4.457200217257866 4 3 0
1585 252 2 0.5564 -0.21764218454605305 4.587700315448067 -3.0287037384749507 3 0 0
3165 779 2 0.5564 4.277000148179506 -0.08551296756704431 -5.083988498186958 -1 2 0
2409 527 2 0.5564 12.693659764930093 3.137919532618993 -5.732608483228176 0 2 0
1555 242 2 0.5564 11.60171546960583 2.7795832637098274 -8.338017219752416 -1 -3 0
1554 242 2 0.5564 13.0163776806407 2.3935955778569102 -8.714382250076829 -1 -3 0
1553 242 1 -1.1128 12.178130560248302 2.659097595763523 -9.092650032718057 -1 -3 0
2059 410 2 0.5564 -0.9791318527891486 1.9304141779389785 -7.795905119320033 1 0 0
2410 527 2 0.5564 11.692584867912577 4.272762889841639 -5.689295575862758 0 2 0
2553 575 2 0.5564 9.416497065095669 7.144735596088716 -5.982835280418916 0 2 0
3064 745 2 0.5564 9.304870361116008 1.088068091597031 -4.715519814289435 7 3 0
1489 220 2 0.5564 8.269249032295296 1.092924632322065 -2.133812400109306 -4 -1 0
2976 716 2 0.5564 2.4941986722215717 1.489612885649373 -4.84828923851842 -2 0 0
3063 745 2 0.5564 8.568416187489502 0.3961577705238241 -5.842813783067354 7 3 0
2574 582 2 0.5564 12.554942162656815 3.9450160088902386 -0.37102664729396967 1 3 0
1115 96 1 -1.1128 6.744254364004011 1.7987336618903154 -2.2733180004044273 -4 0 0
3188 787 1 -1.1128 10.769992824151107 1.362054336527982 -0.15787757574395433 3 0 0
2573 582 1 -1.1128 11.950753252447008 4.610454583547169 -0.7002411392806555 1 3 0
2447 540 1 -1.1128 7.0865843357937734 6.154088973504334 -3.541513296633187 -1 2 0
2448 540 2 0.5564 7.081743346796708 7.110061316229215 -3.493288467424486 -1 2 0
2978 717 1 -1.1128 13.955804203419637 4.751931891435921 -9.547471088284217 2 2 0
2575 582 2 0.5564 11.1758773577789 4.5270495777398585 -0.14449943950881095 1 3 0
2408 527 1 -1.1128 12.564324985833363 4.020349103722037 -5.385007948358058 0 2 0
1117 96 2 0.5564 6.336203539583169 1.8335128993111514 -3.138488657534263 -4 0 0
1116 96 2 0.5564 6.026753472091185 1.5815146463802516 -1.6781313448522912 -4 0 0
2121 431 2 0.5564 7.1497340328930505 2.2688426720931223 -5.363339426423945 1 3 0
2246 473 1 -1.1128 -0.8006299872710437 1.5449227268259909 -3.6038102569062853 -1 4 0
1879 350 2 0.5564 11.911073789182808 0.6148442133606483 -4.936264550051494 2 2 0
866 13 1 -1.1128 7.771085972023752 4.251673957190857 -1.3958448859931405 2 -2 0
1377 183 2 0.5564 9.857000868675755 4.5641166958085035 -4.4280788324904465 4 6 0
2076 416 2 0.5564 0.44355896659497945 -0.10572724363638161 -0.9922097899204637 -1 2 0
867 13 2 0.5564 7.455706270059106 4.902228465926336 -2.0231798023347576 2 -2 0
2569 580 2 0.5564 9.19714215020258 3.630438341649766 -2.3770316344734828 1 -4 0
2567 580 1 -1.1128 9.960977772276351 3.642567737139064 -2.953784219493428 1 -4 0
1376 183 1 -1.1128 9.812516945215988 5.031862453320661 -5.262026318934918 4 6 0
1878 350 2 0.5564 13.42327010024954 0.642272147134254 -4.869853697114368 2 2 0
868 13 2 0.5564 7.344394048634092 3.4366764463719837 -1.6603227197940311 2 -2 0
2449 540 2 0.5564 7.42087437701263 5.959657333928529 -4.417116059665666 -1 2 0
2168 447 1 -1.1128 -0.1635519753297882 6.578215259472152 -3.841993340154185 -1 -3 0
2267 480 1 -1.1128 13.31140955353912 6.915325621394822 -1.7337384811442909 -1 0 0
2269 480 2 0.5564 12.905757950580574 6.090447086629501 -1.466803069872445 -1 0 0
2568 580 2 0.5564 10.635267739758357 4.097817531158981 -2.4494888118069382 1 -4 0
1487 220 1 -1.1128 9.044842786842203 0.5320490923175256 -2.1235320482111875 -4 -1 0
2283 485 2 0.5564 3.7696612611669247 0.06282121572454072 -3.3553087853851 -1 2 0
2268 480 2 0.5564 13.538580683442225 6.784193998249943 -2.6543003653450503 -1 0 0
2248 473 2 0.5564 -0.479771238571597 0.936944621452167 -2.937742364081041 -1 4 0
2057 410 1 -1.1128 -1.3631038812019993 1.1639919868508197 -8.2218127139559 1 0 0
1584 252 2 0.5564 -0.5133101995039573 3.1287912173303996 -2.7529050694516566 3 0 0
1407 193 2 0.5564 -1.6484142377620699 7.047184790999108 -5.775431237720254 1 3 0
3203 792 1 -1.1128 -1.3561131424110509 0.0413921320944528 -5.720951185886796 2 2 0
1637 270 1 -1.1128 13.830854672641387 7.41416207931659 -4.6503282992617185 2 1 0
1437 203 2 0.5564 13.76914903343073 5.980430076645997 -7.75950860643287 -2 5 0
3205 792 2 0.5564 -1.6309191051529686 0.5536802201279443 -4.960502440726042 2 2 0
2948 707 1 -1.1128 4.6780430010158005 4.421347958537777 -0.2795909839664396 1 0 0
2454 542 2 0.5564 4.63286537796008 2.562264881253644 -0.024377593599591685 3 0 0
2453 542 1 -1.1128 4.937161581936708 1.6644097858951192 -0.15667432785407773 3 0 0
2949 707 2 0.5564 3.7392428770721 4.467586787013981 -0.09861066650293905 1 0 0
2345 506 1 -1.1128 0.2689570871577495 5.4540279020172795 -0.21764258653041713 6 0 0
3201 791 2 0.5564 -1.3237612231528 2.027525882688965 -0.09133782272364563 4 -1 0
1290 154 2 0.5564 0.49594042498315183 5.230620599305321 8.193009386085514 1 -4 0
1289 154 1 -1.1128 0.8034061146350656 4.489673883793527 7.670800371978217 1 -4 0
1514 229 1 -1.1128 5.482698108686171 4.209431668992295 7.336851700381308 2 -1 0
2917 696 2 0.5564 0.5532708425344972 5.891053256244269 4.524343712221527 -2 -3 0
3113 762 1 -1.1128 -0.12994583286616393 4.286845620475677 5.07665337405322 2 -1 0
1820 331 1 -1.1128 3.0861292412580594 5.2254843534452915 6.08859543536822 0 0 0
2727 633 2 0.5564 4.4130745991065705 6.435199588154479 1.7357843902795027 0 0 0
3114 762 2 0.5564 -0.03629255538598644 4.349623029173136 6.0271928888309825 2 -1 0
2466 546 2 0.5564 2.4265315962402427 3.796984312215323 3.4633870124599224 6 -1 0
1515 229 2 0.5564 4.897183159158425 3.5507137656601193 7.710342828143182 2 -1 0
2346 506 2 0.5564 -0.36879403074351 5.297017473667205 0.47867418162482134 6 0 0
1821 331 2 0.5564 3.229927814934079 4.54959110002285 5.4262315971185595 0 0 0
2502 558 2 0.5564 10.443422852803883 6.906399854532995 1.056243417899229 2 -2 0
1817 330 1 -1.1128 6.030004920603511 5.681405473531767 1.6898892125076765 1 1 0
1291 154 2 0.5564 1.5520824358176821 4.833697332859239 7.18359025521491 1 -4 0
2916 696 2 0.5564 1.937441713427441 6.430499966193415 4.2328531517394605 -2 -3 0
1818 330 2 0.5564 5.749303387309355 5.320994165251841 0.8487327058091743 1 1 0
2650 607 2 0.5564 5.00791461598605 3.1308278743005125 3.032044668712017 3 2 0
2130 434 2 0.5564 2.0616383883656817 -0.1265281177455534 2.788147953351273 0 4 0
3042 738 2 0.5564 9.560281715691548 5.098646128793137 1.5342535312232874 5 -3 0
2129 434 1 -1.1128 2.497437704649221 0.2565434943780103 3.5494460545669657 0 4 0
2915 696 1 -1.1128 1.0100004248715515 6.663733630730768 4.191775547462321 -2 -3 0
1819 330 2 0.5564 6.080559569315951 4.922638214983472 2.2712234396125743 1 1 0
2006 393 1 -1.1128 0.5543491588860299 -0.29005402393603796 7.27815912157262 0 -1 0
2465 546 1 -1.1128 2.989858102206893 3.2761880853323757 4.0358107559172405 6 -1 0
2612 595 1 -1.1128 13.814017693583796 6.445613781949637 9.419146159962084 1 -1 0
1453 208 2 0.5564 0.030220032869406013 0.4301743081379226 8.935548211566712 0 1 0
2467 546 2 0.5564 2.7724769737203556 2.3681676008242927 3.824913768739308 6 -1 0
1822 331 2 0.5564 3.9232858619943745 5.293550727585945 6.547695397434788 0 0 0
1684 285 2 0.5564 1.6853010531253505 4.5899865415840715 0.8768843455878694 3 5 0
1750 307 2 0.5564 0.4333039781567515 7.55377323287122 9.345701224945643 1 -2 0
2007 393 2 0.5564 0.5159705255183771 0.3247527939234722 6.545508143055652 0 -1 0
1188 120 2 0.5564 8.25701065534349 6.161792961572351 6.774526033216532 3 0 0
1298 157 1 -1.1128 13.883796619929846 -0.35185155356068176 8.680726717714009 -1 0 0
1682 285 1 -1.1128 2.379500668007793 4.617499301878273 1.535341635017226 3 5 0
3128 767 1 -1.1128 5.7677764498702215 1.077503484950625 5.533716044650324 1 -8 0
2025 399 2 0.5564 7.391193984589651 0.6347187184794478 1.8771440248095383 -2 0 0
2382 518 2 0.5564 1.4840453121892563 7.337033275604754 6.001535261543296 3 0 0
3202 791 2 0.5564 -0.7081106205320893 1.3293754061299303 1.1025880718890149 4 -1 0
2383 518 2 0.5564 2.3656457736093874 6.907277664401726 7.154785768492256 3 0 0
1187 120 1 -1.1128 7.746430799900667 6.737999645221317 6.205730460822748 3 0 0
2654 609 1 -1.1128 7.865942576285388 7.646547765379372 2.4748121364900864 -2 0 0
2614 595 2 0.5564 13.256804003904893 6.9815712232838765 8.854792217077192 1 -1 0
1748 307 1 -1.1128 0.293030092045942 6.620092869353779 9.503196814918178 1 -2 0
1300 157 2 0.5564 13.355291164886486 -0.15615066775630068 7.907023287427175 -1 0 0
2381 518 1 -1.1128 1.623665752563345 7.472127106028829 6.9388132236069415 3 0 0
438 2 4 0 11.0522 0.709 12.736959109302104 0 0 0
1594 255 2 0.5564 7.3463757487170085 0.33578099156095115 6.077437716961077 4 0 0
2131 434 2 0.5564 2.897353379379425 -0.4888969324592008 3.9973512061096086 0 4 0
2808 660 2 0.5564 5.975134574266473 7.155166070543814 5.9683677728366185 0 3 0
2620 597 2 0.5564 13.473664353425963 1.7654695540146406 1.5746322938727206 -2 -1 0
2008 393 2 0.5564 1.4877523675419286 -0.4681997185877116 7.393310219897783 0 -1 0
1001 58 1 -1.1128 7.8585745016012 3.276641726046121 6.530135133954588 0 -7 0
1003 58 2 0.5564 6.971516236383217 3.501359936656017 6.810961755458263 0 -7 0
2648 607 1 -1.1128 5.924985329614859 3.238003317091318 3.2844886472681147 3 2 0
3115 762 2 0.5564 -1.07154163343815 4.363803320360203 4.922673856211936 2 -1 0
3207 793 2 0.5564 14.000973761474471 2.7099962418975325 9.464702541361639 -3 2 0
2807 660 1 -1.1128 5.077573616050817 7.285759445986293 6.2742502032069 0 3 0
1683 285 2 0.5564 2.3130357515376168 5.492493629785065 1.9177151730982709 3 5 0
443 2 4 0 13.5083 2.127 12.736959109302104 0 0 0
1912 361 2 0.5564 12.185449678514312 -0.2941639993706692 9.528085030520629 1 1 0
886 19 2 0.5564 10.79945600762034 -0.37589025690175926 3.9709371567698795 -2 0 0
3041 738 1 -1.1128 9.652230510577166 4.345249459734602 0.9510102013230467 5 -3 0
1863 345 2 0.5564 -1.3479148278076527 5.53556123263491 8.887970304762867 0 -1 0
2809 660 2 0.5564 5.169421682857874 7.503323673828168 7.201862629814577 0 3 0
440 2 4 0 12.2802 2.836 12.736959109302104 0 0 0
2649 607 2 0.5564 6.396379109012085 2.5947716474234905 2.7550776133276997 3 2 0
3130 767 2 0.5564 5.784326874753083 1.9696630355288494 5.187288054808362 1 -8 0
1804 325 2 0.5564 -0.3785020042221424 -0.5558868023953185 4.475626287142615 4 0 0
434 2 4 0 8.59617 0.709 12.736959109302104 0 0 0
436 2 4 0 9.82419 2.836 12.736959109302104 0 0 0
2477 550 1 -1.1128 13.126990457552946 2.635314440844536 4.258506115779819 -2 2 0
1580 251 1 -1.1128 0.3180296171352545 1.131068457342227 5.09524156268278 -1 -2 0
1927 366 2 0.5564 9.577757374062145 2.8556557848453594 6.980763602083185 1 1 0
2730 634 2 0.5564 11.654534826126222 5.34046862195917 3.3349453441907557 7 1 0
2655 609 2 0.5564 7.2878353922115995 6.897049717297119 2.332411011454717 -2 0 0
1634 269 1 -1.1128 9.106152218149045 4.758183695116552 4.280573838535165 2 2 0
2619 597 2 0.5564 12.188096155043176 2.0281309161984136 0.8194987935568169 -2 -1 0
2427 533 2 0.5564 10.040138326008943 3.3758057271286326 3.1940154830249767 -5 6 0
2426 533 1 -1.1128 10.52657493557639 2.577264645210685 2.9892083038847512 -5 6 0
2428 533 2 0.5564 10.337796805071804 2.4114952533567537 2.0655644268392694 -5 6 0
2479 550 2 0.5564 12.338099521068123 2.5263601677874155 3.7274556359126993 -2 2 0
1635 269 2 0.5564 9.817375478356421 4.740256574539833 4.920942991168234 2 2 0
1510 227 2 0.5564 12.35650834852289 6.992316418935036 4.699107633635025 0 3 0
2024 399 1 -1.1128 7.395707416351478 1.4986576915109906 1.4650429965446303 -2 0 0
2729 634 1 -1.1128 12.429408356540286 5.324800685791261 3.8966910415718896 7 1 0
1636 269 2 0.5564 8.33886632994522 4.454330990634554 4.765526760546846 2 2 0
1926 366 2 0.5564 10.870553217847629 3.6147267910490557 6.770075705796695 1 1 0
1925 366 1 -1.1128 10.52891335653616 2.7575179489914294 7.024459026298634 1 1 0
884 19 1 -1.1128 9.949190272255947 -0.025290702912285315 4.2362051805314005 -2 0 0
2731 634 2 0.5564 12.786301053234686 4.443207048471255 3.7887353155454724 7 1 0
437 2 4 0 12.2802 0 12.736959109302104 0 0 0
885 19 2 0.5564 10.04623578161006 0.9238294514151292 4.1587902393560086 -2 0 0
2379 517 2 0.5564 11.801071161122357 1.3770362808336165 6.573875203420195 4 0 0
1189 120 2 0.5564 8.140801747375098 6.631589247368538 5.340062727735453 3 0 0
1735 302 2 0.5564 11.592970424231062 6.296425181060783 6.8378535363775965 2 0 0
1733 302 1 -1.1128 11.211066020537315 5.4265998581887365 6.9552644032663355 2 0 0
1592 255 1 -1.1128 8.211976092380585 0.23199188383781535 6.472658065797351 4 0 0
1083 85 2 0.5564 8.034235007749858 -0.4669323560952056 3.6769954009705685 0 -3 0
3230 801 1 -1.1128 12.482740235885329 3.9896388693711167 9.588458298290035 -1 3 0
2478 550 2 0.5564 13.20482032070334 1.8140263223919784 4.743955572447865 -2 2 0
1734 302 2 0.5564 10.484726796287426 5.563508395893121 7.563477718170593 2 0 0
1002 58 2 0.5564 7.802988754920373 2.3562971042616554 6.273019102705523 0 -7 0
490 2 4 0 11.0522 4.963 12.736959109302104 0 0 0
2026 399 2 0.5564 8.316525887129538 1.6626424653636478 1.2614877088255838 -2 0 0
2378 517 1 -1.1128 12.41347634657884 0.6595398098008729 6.411417155228971 4 0 0
3200 791 1 -1.1128 -0.48258375720744434 1.755734987583534 0.27579415608492636 4 -1 0
1581 251 2 0.5564 1.0384457021693856 0.9192973199027411 4.501615419431301 -1 -2 0
2618 597 1 -1.1128 12.960919651551299 2.467615737332455 1.1742323426913748 -2 -1 0
2380 517 2 0.5564 11.856031110280833 -0.10935664569630206 6.291894761555202 4 0 0
2503 558 2 0.5564 9.43577664824527 6.971738136728551 2.1841962491803955 2 -2 0
2720 631 1 -1.1128 3.2818090406756135 6.3837824608396225 9.253543225847247 -1 0 0
2722 631 2 0.5564 2.3357667224272087 6.500450642244493 9.340865481281332 -1 0 0
1516 229 2 0.5564 5.745484616731946 4.747851881940377 8.083366736219764 2 -1 0
2728 633 2 0.5564 3.533894576514116 7.173961047538731 2.7222815206880644 0 0 0
2500 557 2 0.5564 1.6019951227113942 3.128067834521596 8.734349196393897 -1 -1 0
2501 558 1 -1.1128 10.345850227524988 6.743706064071149 1.9944557481936673 2 -2 0
3129 767 2 0.5564 4.952265912589648 1.0288383144556192 6.032522370938822 1 -8 0
1910 361 1 -1.1128 11.288094992115159 -0.5949943378299711 9.67123592562109 1 1 0
2721 631 2 0.5564 3.627450915994504 7.273289131177393 9.179098932151902 -1 0 0
2275 482 2 0.5564 3.616102842694104 1.9214648488832713 8.545105204251863 0 -3 0
1451 208 1 -1.1128 -0.2252174305163476 0.8165775297560482 9.773213672999153 0 1 0
1582 251 2 0.5564 0.2689440298625068 2.0869136807184874 5.081653925304349 -1 -2 0
2273 482 1 -1.1128 4.370630691802326 1.5154063312023165 8.118440684536731 0 -3 0
2498 557 1 -1.1128 1.961607217738353 2.4464894108406137 9.302121929937188 -1 -1 0
2549 574 1 -1.1128 6.441160147088054 5.61078004924618 9.43835326264525 3 2 0
2550 574 2 0.5564 5.761529015474052 5.267904416961555 10.018672962674167 3 2 0
482 2 4 0 6.14012 4.963 12.736959109302104 0 0 0
480 2 4 0 4.9121 7.09 12.736959109302104 0 0 0
483 2 4 0 6.14012 6.381 12.736959109302104 0 0 0
417 2 4 0 0 0 12.736959109302104 0 0 0
418 2 4 0 -1.22802 0.709 12.736959109302104 0 0 0
419 2 4 0 -1.22802 2.127 12.736959109302104 0 0 0
420 2 4 0 0 2.836 12.736959109302104 0 0 0
421 2 4 0 2.45605 0 12.736959109302104 0 0 0
422 2 4 0 1.22802 0.709 12.736959109302104 0 0 0
423 2 4 0 1.22802 2.127 12.736959109302104 0 0 0
424 2 4 0 2.45605 2.836 12.736959109302104 0 0 0
425 2 4 0 4.9121 0 12.736959109302104 0 0 0
426 2 4 0 3.68407 0.709 12.736959109302104 0 0 0
427 2 4 0 3.68407 2.127 12.736959109302104 0 0 0
428 2 4 0 4.9121 2.836 12.736959109302104 0 0 0
430 2 4 0 6.14012 0.709 12.736959109302104 0 0 0
431 2 4 0 6.14012 2.127 12.736959109302104 0 0 0
469 2 4 0 0 4.254 12.736959109302104 0 0 0
470 2 4 0 -1.22802 4.963 12.736959109302104 0 0 0
471 2 4 0 -1.22802 6.381 12.736959109302104 0 0 0
472 2 4 0 0 7.09 12.736959109302104 0 0 0
473 2 4 0 2.45605 4.254 12.736959109302104 0 0 0
474 2 4 0 1.22802 4.963 12.736959109302104 0 0 0
475 2 4 0 1.22802 6.381 12.736959109302104 0 0 0
476 2 4 0 2.45605 7.09 12.736959109302104 0 0 0
477 2 4 0 4.9121 4.254 12.736959109302104 0 0 0
478 2 4 0 3.68407 4.963 12.736959109302104 0 0 0
479 2 4 0 3.68407 6.381 12.736959109302104 0 0 0
2499 557 2 0.5564 1.1930242182678947 2.010440794014496 9.670056726354492 -1 -1 0
2551 574 2 0.5564 6.199849121424953 6.526847960916882 9.301150363675173 3 2 0
3232 801 2 0.5564 12.918109228187477 4.8322271549941345 9.717827661821087 -1 3 0
1593 255 2 0.5564 8.801770604356633 0.10668487159463809 5.729237573194982 4 0 0
3043 738 2 0.5564 9.017928986472137 4.504098501999451 0.2519642023266829 5 -3 0
481 2 4 0 7.36814 4.254 12.736959109302104 0 0 0
488 2 4 0 9.82419 7.09 12.736959109302104 0 0 0
2726 633 1 -1.1128 3.670799684230419 7.037581136458895 1.784789305031164 0 0 0
2800 657 2 0.5564 10.51069283052368 2.1686694581822525 8.558413513656763 -2 2 0
3231 801 2 0.5564 12.018716257687009 4.084489475927543 8.75664160814235 -1 3 0
491 2 4 0 11.0522 6.381 12.736959109302104 0 0 0
432 2 4 0 7.36814 2.836 12.736959109302104 0 0 0
1452 208 2 0.5564 0.26987007138582825 0.32221741064820314 10.426459706347568 0 1 0
489 2 4 0 12.2802 4.254 12.736959109302104 0 0 0
2799 657 2 0.5564 10.837965800482653 2.5137184365347727 9.9956793773882 -2 2 0
2798 657 1 -1.1128 10.350879774692334 1.8880326882265137 9.459490821874404 -2 2 0
484 2 4 0 7.36814 7.09 12.736959109302104 0 0 0
435 2 4 0 8.59617 2.127 12.736959109302104 0 0 0
2455 542 2 0.5564 5.7008538367306425 1.583203232619017 0.4146545972625597 3 0 0
1749 307 2 0.5564 -0.08383251843406185 6.578938239699689 10.382125241426474 1 -2 0
1082 85 1 -1.1128 7.180653177958763 -0.59062568317387 3.2618654777360003 0 -3 0
487 2 4 0 8.59617 6.381 12.736959109302104 0 0 0
1911 361 2 0.5564 10.779015038037532 0.20902082088194857 9.774346029727193 1 1 0
2274 482 2 0.5564 4.946523138225731 1.2618741649638658 8.839762486624918 0 -3 0
485 2 4 0 9.82419 4.254 12.736959109302104 0 0 0
486 2 4 0 8.59617 4.963 12.736959109302104 0 0 0
439 2 4 0 11.0522 2.127 12.736959109302104 0 0 0
494 2 4 0 13.5083 4.963 12.736959109302104 0 0 0
2035 402 2 0.5564 3.582308361690666 -0.029227779543138745 7.782413391404234 0 -2 0
495 2 4 0 13.5083 6.381 12.736959109302104 0 0 0
1084 85 2 0.5564 6.563219031238997 -0.15237785349744043 3.847482031198767 0 -3 0
2235 469 2 0.5564 8.182700941652463 5.749074872773155 8.86296074426308 0 -1 0
2234 469 1 -1.1128 9.022055190565254 6.042253871189023 8.508325836520315 0 -1 0
2236 469 2 0.5564 9.212459834220429 6.852503314044337 8.981061638795625 0 -1 0
492 2 4 0 12.2802 7.09 12.736959109302104 0 0 0
433 2 4 0 9.82419 0 12.736959109302104 0 0 0
442 2 4 0 13.5083 0.709 12.736959109302104 0 0 0
1430 201 1 -1.1128 5.917906446813031 -0.45659978815801017 9.762811117815293 -2 -1 0
429 2 4 0 7.36814 0 12.736959109302104 0 0 0
898 23 2 0.5564 0.10276637096189654 7.768670836101996 2.7365469475942112 -4 2 0
3189 787 2 0.5564 10.942348900123363 0.4693193239303519 0.14138502186130147 3 0 0
105 1 3 0 0 8.508 -13.028967241974486 0 0 0
106 1 3 0 -1.22802 9.217 -13.028967241974486 0 0 0
107 1 3 0 -1.22802 10.635 -13.028967241974486 0 0 0
108 1 3 0 0 11.344 -13.028967241974486 0 0 0
109 1 3 0 2.45605 8.508 -13.028967241974486 0 0 0
110 1 3 0 1.22802 9.217 -13.028967241974486 0 0 0