LAMMPS data file via write_data, version 2 Aug 2023, timestep = 6500000, units = real

5032 atoms
4 atom types
2800 bonds
1 bond types
1400 angles
1 angle types
0 impropers
1 improper types

-1.8420299999999998 30.08661 xlo xhi
-0.709 33.323 ylo yhi
-150 150 zlo zhi

Masses

1 15.9994
2 1.00794
3 12.0107
4 12.0107

Pair Coeffs # lj/cut/tip4p/long

1 0.1852 3.1589
2 0 0
3 0.0859 3.3997
4 0.0859 3.3997

Bond Coeffs # harmonic

1 5000 0.9572

Angle Coeffs # harmonic

1 500 104.52

Atoms # full

1 1 3 0 0 0 -19.086524130372066 0 0 0
2 1 3 0 -1.22802 0.709 -19.086524130372066 0 0 0
3 1 3 0 -1.22802 2.127 -19.086524130372066 0 0 0
4 1 3 0 0 2.836 -19.086524130372066 0 0 0
5 1 3 0 2.45605 0 -19.086524130372066 0 0 0
6 1 3 0 1.22802 0.709 -19.086524130372066 0 0 0
7 1 3 0 1.22802 2.127 -19.086524130372066 0 0 0
8 1 3 0 2.45605 2.836 -19.086524130372066 0 0 0
9 1 3 0 4.9121 0 -19.086524130372066 0 0 0
10 1 3 0 3.68407 0.709 -19.086524130372066 0 0 0
11 1 3 0 3.68407 2.127 -19.086524130372066 0 0 0
12 1 3 0 4.9121 2.836 -19.086524130372066 0 0 0
14 1 3 0 6.14012 0.709 -19.086524130372066 0 0 0
15 1 3 0 6.14012 2.127 -19.086524130372066 0 0 0
53 1 3 0 0 4.254 -19.086524130372066 0 0 0
54 1 3 0 -1.22802 4.963 -19.086524130372066 0 0 0
55 1 3 0 -1.22802 6.381 -19.086524130372066 0 0 0
56 1 3 0 0 7.09 -19.086524130372066 0 0 0
57 1 3 0 2.45605 4.254 -19.086524130372066 0 0 0
58 1 3 0 1.22802 4.963 -19.086524130372066 0 0 0
59 1 3 0 1.22802 6.381 -19.086524130372066 0 0 0
60 1 3 0 2.45605 7.09 -19.086524130372066 0 0 0
61 1 3 0 4.9121 4.254 -19.086524130372066 0 0 0
62 1 3 0 3.68407 4.963 -19.086524130372066 0 0 0
63 1 3 0 3.68407 6.381 -19.086524130372066 0 0 0
64 1 3 0 4.9121 7.09 -19.086524130372066 0 0 0
66 1 3 0 6.14012 4.963 -19.086524130372066 0 0 0
67 1 3 0 6.14012 6.381 -19.086524130372066 0 0 0
905 26 1 -1.1128 2.926032269953541 2.2570268981114467 -15.96516657540777 1 1 0
2331 501 2 0.5564 6.462011815632699 3.1537262465853737 -15.663938535397794 4 0 0
2330 501 1 -1.1128 5.914265573395217 2.375079069090564 -15.56435968315308 4 0 0
906 26 2 0.5564 3.8655420355767625 2.1578757189526243 -15.811139160498485 1 1 0
907 26 2 0.5564 2.5938937633932118 1.3603140866647099 -16.00787880806151 1 1 0
2332 501 2 0.5564 6.498048817458019 1.7178319535970372 -15.185600788950612 4 0 0
2813 662 1 -1.1128 11.090197703232771 7.205193074532913 -5.729806878180513 0 0 0
3545 906 1 -1.1128 0.2670114993983071 7.128701697297545 -11.678460830196084 1 -2 0
3521 898 1 -1.1128 4.002191868347889 0.6078779273354407 -2.6950586632673095 2 -1 0
1105 92 2 0.5564 -1.1838009672574923 3.7206030008644424 -8.94725071625717 -2 -5 0
3522 898 2 0.5564 4.938069514648621 0.7007807066512893 -2.516898603853616 2 -1 0
3315 829 2 0.5564 -0.6294106607635427 2.0809028543972046 -12.025019658318643 -4 1 0
1244 139 1 -1.1128 2.0596270465970736 4.988781208949208 -15.92517971865402 3 3 0
1245 139 2 0.5564 2.3740839045568003 4.110736170704312 -16.140563877587706 3 3 0
3603 925 2 0.5564 2.233362199634415 6.775536618182764 -15.937830319941348 -2 -2 0
2425 532 2 0.5564 10.638789237268218 6.530175435459449 -0.7629732622228436 2 -1 0
1246 139 2 0.5564 1.739498292656474 4.91520685664457 -15.026102748378756 3 3 0
4336 1169 2 0.5564 13.818034306948334 5.92986717775194 -2.774835457161004 0 2 0
899 24 1 -1.1128 4.9503713825304585 7.67205798426608 -10.815275450489862 -5 1 0
1910 361 1 -1.1128 7.6951986789314875 4.753814437469439 -15.87938361800642 0 0 0
1912 361 2 0.5564 8.440494131207679 5.3460712516853945 -15.97938903904484 0 0 0
867 13 2 0.5564 8.957900739528132 3.2157653141559557 -15.822971932067526 0 -3 0
13 1 3 0 7.36814 0 -19.086524130372066 0 0 0
16 1 3 0 7.36814 2.836 -19.086524130372066 0 0 0
17 1 3 0 9.82419 0 -19.086524130372066 0 0 0
18 1 3 0 8.59617 0.709 -19.086524130372066 0 0 0
19 1 3 0 8.59617 2.127 -19.086524130372066 0 0 0
20 1 3 0 9.82419 2.836 -19.086524130372066 0 0 0
21 1 3 0 12.2802 0 -19.086524130372066 0 0 0
22 1 3 0 11.0522 0.709 -19.086524130372066 0 0 0
23 1 3 0 11.0522 2.127 -19.086524130372066 0 0 0
24 1 3 0 12.2802 2.836 -19.086524130372066 0 0 0
26 1 3 0 13.5083 0.709 -19.086524130372066 0 0 0
27 1 3 0 13.5083 2.127 -19.086524130372066 0 0 0
65 1 3 0 7.36814 4.254 -19.086524130372066 0 0 0
68 1 3 0 7.36814 7.09 -19.086524130372066 0 0 0
69 1 3 0 9.82419 4.254 -19.086524130372066 0 0 0
70 1 3 0 8.59617 4.963 -19.086524130372066 0 0 0
71 1 3 0 8.59617 6.381 -19.086524130372066 0 0 0
72 1 3 0 9.82419 7.09 -19.086524130372066 0 0 0
73 1 3 0 12.2802 4.254 -19.086524130372066 0 0 0
74 1 3 0 11.0522 4.963 -19.086524130372066 0 0 0
75 1 3 0 11.0522 6.381 -19.086524130372066 0 0 0
76 1 3 0 12.2802 7.09 -19.086524130372066 0 0 0
78 1 3 0 13.5083 4.963 -19.086524130372066 0 0 0
79 1 3 0 13.5083 6.381 -19.086524130372066 0 0 0
3113 762 1 -1.1128 12.000139959204775 0.761787488098574 -15.831814034457938 -1 -2 0
4394 1189 1 -1.1128 13.80022666433703 0.3178060312976998 -13.134799495402216 0 3 0
3870 1014 2 0.5564 2.94270146014467 3.001369629380713 -0.6691338527352199 -1 0 0
3115 762 2 0.5564 11.29523950544257 1.4074521702356773 -15.881497502826035 -1 -2 0
866 13 1 -1.1128 9.504676804678294 2.465412718193428 -16.055871197466264 0 -3 0
1629 267 2 0.5564 8.581107878099386 1.1099628362957563 -15.915851525801093 5 -3 0
3050 741 1 -1.1128 8.326401310314678 7.772848397464068 -15.809051943883413 -2 4 0
1628 267 1 -1.1128 7.93836109295766 0.42223236533315056 -15.742238043930364 5 -3 0
1268 147 1 -1.1128 10.05227736418158 4.704322066446293 -0.036754583715134806 -1 1 0
1922 365 1 -1.1128 12.745255152034856 4.351047355290655 -14.891713205408957 -2 0 0
4462 1211 2 0.5564 10.203644608699218 -0.42238941693499926 -13.244643365293385 0 -1 0
1924 365 2 0.5564 12.446588216263844 3.6003267730385633 -14.378440300459511 -2 0 0
4332 1168 2 0.5564 6.970211713034261 -0.2276518546518327 -5.089713874774754 -1 4 0
1588 253 2 0.5564 12.853174992669647 3.0490351580050605 -3.8442722359698753 1 2 0
4549 1240 2 0.5564 10.775885174650035 3.0799310034888663 -3.122769736337073 1 -1 0
3993 1055 2 0.5564 -1.1685978795344976 0.4381412545866158 -14.900892681631902 -1 7 0
3314 829 1 -1.1128 -0.5271293505312835 1.3696048303887434 -11.392701613281194 -4 1 0
3316 829 2 0.5564 0.10446806073894412 1.7036955127602404 -10.755755252202633 -4 1 0
2467 546 2 0.5564 -1.2908117041175238 6.2689303197016395 -12.432025517685735 -5 0 0
2457 543 2 0.5564 5.252340029550648 3.4636901836353293 -13.486230760927345 3 1 0
1104 92 2 0.5564 0.028317272834737367 3.964539528190837 -8.073657641592405 -2 -5 0
1270 147 2 0.5564 10.06341676976577 4.219373385164634 -0.861942684534393 -1 1 0
4791 1321 2 0.5564 6.0038232536827305 2.306932866849582 -9.146873124482713 -1 1 0
4490 1221 1 -1.1128 2.8720367726029763 1.4311964769140832 -7.955003983136762 5 -1 0
1164 112 2 0.5564 3.901907960451154 3.4916012096279383 -8.174990560547194 1 -1 0
4448 1207 1 -1.1128 2.0372833182473875 3.1655792923187787 -13.733962653460976 -3 -2 0
4234 1135 2 0.5564 7.305543749321541 -0.4947008669556101 -13.006454148296596 0 -6 0
3220 797 2 0.5564 4.813134621328914 4.930119086286118 -14.70359376515504 -3 2 0
3218 797 1 -1.1128 4.898621113429564 5.522485160265156 -15.45060924725877 -3 2 0
4232 1135 1 -1.1128 7.27964590238956 0.33648152293848144 -12.532430621361824 0 -6 0
4233 1135 2 0.5564 6.965061509395285 0.10471235807282483 -11.658613913839476 0 -6 0
2456 543 1 -1.1128 4.642207767203207 4.1255071676117 -13.160701134819673 3 1 0
4449 1207 2 0.5564 2.2070064226582353 2.6789117695437397 -14.540552602087082 -3 -2 0
4450 1207 2 0.5564 1.1375372458213613 2.937040784499825 -13.500596278044283 -3 -2 0
1698 290 2 0.5564 2.3232395362422174 2.2335355632462184 -9.428216256895675 3 0 0
2106 426 2 0.5564 5.188733355430534 5.929778843993285 -10.777311913237897 2 -2 0
2458 543 2 0.5564 3.7915409976848373 3.686655000684941 -13.157211351599766 3 1 0
4491 1221 2 0.5564 2.9233372173910466 1.6761882809825424 -7.031107589542456 5 -1 0
1699 290 2 0.5564 2.832099625447948 2.455929344665003 -10.836583372505897 3 0 0
2105 426 1 -1.1128 5.271450181691172 4.979644181127455 -10.695859458500504 2 -2 0
1697 290 1 -1.1128 2.026108605472662 2.3922642320868666 -10.324179873886086 3 0 0
2107 426 2 0.5564 5.0325944819343515 4.6430405321415815 -11.5595018844105 2 -2 0
3219 797 2 0.5564 4.007810491732666 5.611674656074007 -15.789334449447423 -3 2 0
3331 834 2 0.5564 4.835208706307558 1.1746558643947431 -11.56583935185973 -1 -1 0
3329 834 1 -1.1128 4.773515667910634 1.5009650803656396 -10.668092382416122 -1 -1 0
3330 834 2 0.5564 4.661872845245087 0.7144924648748183 -10.134022195228074 -1 -1 0
2807 660 1 -1.1128 1.1367827826546963 -0.4005535070216256 -12.987666040124669 -2 0 0
4273 1148 2 0.5564 11.790029921071593 -0.048636916554979356 -9.16763837465563 5 -1 0
4181 1118 1 -1.1128 -0.7568463862458922 6.790000574076664 -8.541013528066577 -1 1 0
2809 660 2 0.5564 0.2889748640081582 0.015275516590496974 -12.830999279565448 -2 0 0
1284 152 2 0.5564 12.109619553781629 1.8554623620344532 -12.86950922074367 -1 0 0
3547 906 2 0.5564 0.49421583439708333 6.300664683514878 -11.25541807670688 1 -2 0
3882 1018 2 0.5564 8.468457130076434 1.8025179519016787 -12.400904344567165 -2 0 0
2127 433 2 0.5564 2.808796740479225 7.545377753982726 -13.7771939491617 2 4 0
1536 236 2 0.5564 6.808852795151628 5.333288174359585 -9.693691402662166 -1 0 0
4389 1187 2 0.5564 -1.2138049860695144 2.3697348754462544 -3.039347111325737 0 -3 0
1163 112 1 -1.1128 3.6463747252536143 4.367359802086211 -8.464786916768894 1 -1 0
4792 1321 2 0.5564 7.292223731596722 2.1870749081578755 -8.361026713176539 -1 1 0
4747 1306 2 0.5564 1.7365122801284427 4.009881547349718 -10.613805401258672 1 4 0
4182 1118 2 0.5564 0.023293322926943506 6.508929508410068 -8.062877930236017 -1 1 0
1586 253 1 -1.1128 12.14414766703688 2.408841270845289 -3.904844515769562 1 2 0
4746 1306 2 0.5564 2.058341870081689 5.262449852476033 -11.40082436190611 1 4 0
4790 1321 1 -1.1128 6.358683996557185 2.3730951312961293 -8.260345494338933 -1 1 0
1843 338 2 0.5564 13.836649112823615 7.638084467969691 -3.8807140037975594 2 1 0
4745 1306 1 -1.1128 1.4461945363622346 4.911122108360268 -10.754235866693964 1 4 0
3289 820 2 0.5564 -1.5219835749511195 3.0065802978230414 -6.62148832441699 -2 0 0
4183 1118 2 0.5564 -1.3671027483660707 7.072347817716662 -7.859764190401978 -1 1 0
2126 433 1 -1.1128 2.693960284283046 7.536417508504206 -12.826949456681657 2 4 0
3913 1028 2 0.5564 0.00600881364401773 1.2859279771810919 -7.93517928933247 -1 1 0
4584 1252 2 0.5564 -1.134398850585056 2.5574762814333307 -16.649957597686118 -1 -2 0
4583 1252 1 -1.1128 -1.3169983389560986 2.2203832390481124 -15.772884234909778 -1 -2 0
3472 881 2 0.5564 -1.1778486802532284 4.159042032667227 -12.897647681126843 3 1 0
3471 881 2 0.5564 -0.9619340731205261 3.2685063603356714 -14.102730847755934 3 1 0
3114 762 2 0.5564 12.319529486008484 0.8239734029870316 -14.931614430518188 -1 -2 0
4013 1062 1 -1.1128 8.827925550356388 1.4400374759379735 -9.218420366421354 2 1 0
1911 361 2 0.5564 6.927873087195298 5.324527414966304 -15.920987547689784 0 0 0
3011 728 1 -1.1128 2.752101685729091 7.395542673427833 -8.721653974935657 -1 1 0
2548 573 2 0.5564 9.436275120256456 1.8187866045109091 -2.649933254585363 -5 1 0
1559 244 1 -1.1128 13.49593324201583 -0.3256202845045862 -1.5687692811856049 0 4 0
4121 1098 1 -1.1128 -1.6954527046473407 7.605771208410601 -2.435349299593028 1 -3 0
3544 905 2 0.5564 5.133055112877226 -0.20651494788115876 -6.2865678228961075 -1 2 0
868 13 2 0.5564 9.458344375108448 2.4219569119341537 -17.010961896284062 0 -3 0
4502 1225 1 -1.1128 13.758410329928337 4.067619286972485 -0.00765479396917465 3 4 0
4015 1062 2 0.5564 9.653106170333192 1.3511960055639745 -8.741538097091375 2 1 0
849 7 2 0.5564 12.223825127987409 5.836622794976089 -8.629959293610423 -5 0 0
3151 774 2 0.5564 11.35798588554489 5.116904067375067 -10.789395434205181 -2 4 0
3149 774 1 -1.1128 12.200474726205604 5.045773065677747 -10.340635268106743 -2 4 0
850 7 2 0.5564 12.533242041792851 4.920865760076586 -7.464821545971051 -5 0 0
1250 141 1 -1.1128 10.30164166194735 5.504075246792007 -15.84889763769073 1 -1 0
4431 1201 2 0.5564 13.884410765583239 2.9580948742811652 -6.476346726356405 -1 2 0
3013 728 2 0.5564 2.1632256861203296 7.6771976072686305 -8.021562901087313 -1 1 0
4396 1189 2 0.5564 13.634017048775528 -0.6222663110958241 -13.06498646855336 0 3 0
3883 1018 2 0.5564 8.95920678894221 2.016973294984221 -10.984899030576203 -2 0 0
5014 1395 2 0.5564 9.037725745896939 5.627019801733973 -11.666832781658082 0 2 0
3881 1018 1 -1.1128 9.001317694679154 2.39025391344725 -11.865310974088796 -2 0 0
5012 1395 1 -1.1128 9.500196226560107 5.088372542407878 -11.024792850894485 0 2 0
5013 1395 2 0.5564 9.364960704148187 4.189229948842612 -11.323941465563658 0 2 0
3338 837 1 -1.1128 11.740486539450131 1.0700080286926934 -7.890881886003644 -6 -1 0
3340 837 2 0.5564 11.328352778744803 0.7001911636911605 -7.1101040303051555 -6 -1 0
1251 141 2 0.5564 10.75230718744031 4.659811779436625 -15.867679341847724 1 -1 0
4430 1201 1 -1.1128 13.290817752978091 3.215660575442835 -7.181711623703058 -1 2 0
4432 1201 2 0.5564 13.72934703234868 2.926641198516602 -7.981956705569724 -1 2 0
1535 236 1 -1.1128 7.57388199938085 5.485282500018942 -9.138839887655195 -1 0 0
1537 236 2 0.5564 8.321744578496933 5.377743478613196 -9.72652124924231 -1 0 0
3150 774 2 0.5564 12.848945091600552 5.055312577196835 -11.044647793792933 -2 4 0
3339 837 2 0.5564 11.974809987098121 1.9630813722311697 -7.638401225137834 -6 -1 0
1252 141 2 0.5564 9.937523522894068 5.562147786828232 -14.965563493922042 1 -1 0
2830 667 2 0.5564 5.4289700263401 7.128562416574859 -14.72421813290414 -2 2 0
1746 306 2 0.5564 4.294201076470142 6.982553688901837 -7.937078317129035 6 1 0
3516 896 2 0.5564 -1.3145097623136468 -0.5825198313768767 -8.445983543337556 1 1 0
1285 152 2 0.5564 10.712596676531067 2.438726875604592 -12.874562910066205 -1 0 0
1938 370 2 0.5564 13.958209063965638 0.18395200838009557 -7.346956521574219 -1 1 0
1627 266 2 0.5564 8.667518445117429 5.364444971427737 -4.837153805421962 2 -1 0
4272 1148 2 0.5564 11.315082085392342 -0.33087644718513937 -10.577130107085404 5 -1 0
4212 1128 2 0.5564 5.241687446240286 7.7543689902673005 -5.9858609117225035 1 2 0
1283 152 1 -1.1128 11.466077983896954 2.2738234344854433 -13.441401362117109 -1 0 0
4843 1338 2 0.5564 13.541245592349256 7.669630756276901 -15.838309742215655 2 0 0
3470 881 1 -1.1128 -0.6774831909163394 3.4004558008639316 -13.198346236454261 3 1 0
4494 1222 2 0.5564 9.378813861914523 7.522425544473036 -2.429717415196344 -2 2 0
1010 61 1 -1.1128 2.8743082477007316 1.577217570774506 -5.295367609501896 0 1 0
3944 1039 1 -1.1128 14.091842189628801 -0.07369674625065407 -4.267994107163356 3 5 0
3211 794 2 0.5564 -0.346359776025343 0.26377269722655705 -4.071200436841257 3 2 0
4451 1208 1 -1.1128 6.011709320206654 1.3725183533553293 -5.648777395672609 -3 0 0
3523 898 2 0.5564 3.622642898211794 1.4447427377367672 -2.4270365724235727 2 -1 0
1526 233 1 -1.1128 9.008954874755378 5.538333721785122 -6.6424614355821054 -1 1 0
1103 92 1 -1.1128 -0.6218720691364157 3.298610780163293 -8.297330855773886 -2 -5 0
1011 61 2 0.5564 2.1776497807160378 0.9218143507557769 -5.258667402075907 0 1 0
1398 190 2 0.5564 -0.8262725365562139 5.816888359643183 -2.65853534206187 3 4 0
2679 617 2 0.5564 1.5313889731206494 5.486536731931017 -6.562687825633617 -4 2 0
2680 617 2 0.5564 2.0525967165648393 5.022645439497674 -7.90620665303551 -4 2 0
2678 617 1 -1.1128 1.2429413485665528 5.155269083565413 -7.413153428072084 -4 2 0
1165 112 2 0.5564 4.260814002583035 4.5761035102028185 -9.16843791707331 1 -1 0
3887 1020 1 -1.1128 10.08822541974319 -0.08320772277540152 -5.624387322698119 -3 -2 0
3985 1052 2 0.5564 -1.762663774766791 4.845713638138321 -10.693086536255091 -2 1 0
4102 1091 2 0.5564 3.700884571246096 5.942839876584654 -1.2693701752542221 0 -1 0
1397 190 1 -1.1128 -0.13281123797694036 5.157851738570078 -2.626679230237342 3 4 0
4390 1187 2 0.5564 -0.9406813922933502 2.571079591760957 -4.514731566076625 0 -3 0
1012 61 2 0.5564 3.48580559248646 1.3162829610808884 -4.606733121941928 0 1 0
3238 803 2 0.5564 6.426628120161706 7.256843117254783 -2.580257384301137 0 -2 0
1745 306 1 -1.1128 5.172661250606508 6.987593043666532 -7.556918834361244 6 1 0
1709 294 1 -1.1128 1.9663278427236717 6.305770991577435 -5.03378571338775 -3 2 0
1710 294 2 0.5564 1.214092314858943 6.156571306329772 -4.460973086415453 -3 2 0
896 23 1 -1.1128 6.241514958145106 3.507300311792692 -3.5764949029672675 1 -4 0
897 23 2 0.5564 5.451963873007733 3.878199106496772 -3.970548768011493 1 -4 0
4101 1091 2 0.5564 4.456127995569811 5.43947706520229 -2.481033874302335 0 -1 0
1711 294 2 0.5564 2.64016736624894 5.710796095228813 -4.704879493869954 -3 2 0
1971 381 2 0.5564 2.823162407337512 3.6145660428456514 -2.7339083416043124 -5 -1 0
3012 728 2 0.5564 2.169452477454944 7.09063998264429 -9.417201375397724 -1 1 0
2191 454 2 0.5564 3.4471412358314275 3.3747001622779833 -5.130862029305791 -3 1 0
2190 454 2 0.5564 4.498262953278729 4.330777305759497 -5.653320190805349 -3 1 0
2189 454 1 -1.1128 3.958552341731736 4.145509978701355 -4.884799854219665 -3 1 0
1972 381 2 0.5564 1.4609493687014135 2.95425690497779 -2.7501590059691603 -5 -1 0
1970 381 1 -1.1128 2.382566176627037 2.7836574126574685 -2.5558636480596357 -5 -1 0
4800 1324 2 0.5564 6.202773866307833 3.980165327459914 -7.251049388719829 0 -4 0
4100 1091 1 -1.1128 3.742207173626601 5.211518520169831 -1.8855635335784897 0 -1 0
3236 803 1 -1.1128 5.4886572195242715 7.292424000912563 -2.767818190581041 0 -2 0
4799 1324 1 -1.1128 6.163500895002896 4.59041561634063 -6.514647069862801 0 -4 0
4801 1324 2 0.5564 7.036646483399356 4.981111728044257 -6.479907950289076 0 -4 0
2133 435 2 0.5564 7.484135916520361 7.396959252007907 -12.815517270727018 -1 0 0
4388 1187 1 -1.1128 -0.5356675945366605 2.6553546571589526 -3.651543266795577 0 -3 0
3984 1052 2 0.5564 -1.5620429442923969 5.568544390264945 -9.378110196547262 -2 1 0
4334 1169 1 -1.1128 13.485614639010567 6.631108112790643 -2.214482381910297 0 2 0
1747 306 2 0.5564 5.394016641916189 6.062278743422363 -7.451896742861723 6 1 0
898 23 2 0.5564 6.908869044374305 4.1832931558002935 -3.694424874992546 1 -4 0
4271 1148 1 -1.1128 11.910005673922848 -0.6531408861850064 -9.900045015371058 5 -1 0
847 6 2 0.5564 0.30108762256158494 4.999086614636133 -0.8326288195931123 0 0 0
2547 573 2 0.5564 8.319036284909783 0.8233785512127856 -2.420073083705334 -5 1 0
1399 190 2 0.5564 -0.5488969244305517 4.3561525201957725 -2.943518006687638 3 4 0
4377 1183 2 0.5564 6.417851379837906 1.550923009870004 -0.9723654487678562 5 -1 0
3008 727 1 -1.1128 14.110124766315495 4.2715572092617045 -3.40461672766987 0 0 0
4452 1208 2 0.5564 5.924640979817626 1.8547006446003207 -6.471063776993759 -3 0 0
2814 662 2 0.5564 11.714976076088746 6.780968677439394 -6.317960059446625 0 0 0
4014 1062 2 0.5564 8.386673662263693 0.5999022049554789 -9.093109763599768 2 1 0
3095 756 1 -1.1128 1.8940299669000134 -0.569463491606909 -16.008801988605796 -4 -1 0
4504 1225 2 0.5564 13.844332478908525 4.735273435911975 -0.6881603707186656 3 4 0
2423 532 1 -1.1128 11.037694844719626 7.31133008378681 -1.146254120425491 2 -1 0
3945 1039 2 0.5564 13.983415375396968 -0.2817084112245993 -3.339978524878698 3 5 0
1527 233 2 0.5564 8.585208105599198 5.929256682902936 -7.406564969807289 -1 1 0
3800 991 1 -1.1128 3.880231963536019 0.17741459222192077 -12.92887943593105 -3 1 0
4493 1222 1 -1.1128 8.521438174309532 7.793801815399373 -2.757580458649883 -2 2 0
848 7 1 -1.1128 12.418140470998283 5.843388966808263 -7.69271427706155 -5 0 0
4393 1188 2 0.5564 14.014188133120303 7.005558245813951 -7.614070693029739 -5 3 0
2424 532 2 0.5564 11.872950852615304 7.005402101500635 -1.499790789059192 2 -1 0
4453 1208 2 0.5564 6.252917811306011 2.0381836479526516 -5.004617292791455 -3 0 0
2546 573 1 -1.1128 9.252406102808456 0.8797507408622048 -2.6247072214664446 -5 1 0
3092 755 1 -1.1128 10.12398545175417 2.8183676954309216 -5.879942516730962 3 2 0
4842 1338 2 0.5564 13.849685503837483 6.419270734447106 -15.042470542099784 2 0 0
3888 1020 2 0.5564 9.254793677575698 -0.48496323871138886 -5.378996466054038 -3 -2 0
3093 755 2 0.5564 10.940367801243877 3.166568632352086 -5.521461223814525 3 2 0
3094 755 2 0.5564 9.744049969058105 3.550080026632201 -6.366232893565551 3 2 0
2134 435 2 0.5564 7.89997572819658 6.887212455761451 -14.179016785827045 -1 0 0
4548 1240 2 0.5564 9.460216081936318 3.81902593418883 -3.2438045618840747 1 -1 0
1587 253 2 0.5564 12.588501722306182 1.5685450265211276 -4.017466577047779 1 2 0
4492 1221 2 0.5564 3.1677767778968575 0.5211369549077829 -7.978737346232597 5 -1 0
4378 1183 2 0.5564 6.584235168354503 2.1048995663407277 -2.3714086367239684 5 -1 0
3992 1055 1 -1.1128 -1.3067210256047603 -0.4264363937025325 -14.514030760162704 -1 7 0
3889 1020 2 0.5564 10.074231010777218 0.7756217493355929 -5.201955752508513 -3 -2 0
4547 1240 1 -1.1128 10.039426786747839 3.4043085026357076 -2.604463867490603 1 -1 0
1626 266 2 0.5564 8.448386318595528 6.238374138773826 -3.6205494102021443 2 -1 0
1625 266 1 -1.1128 8.343131668743675 5.341110836390946 -3.9368961472977526 2 -1 0
1528 233 2 0.5564 9.73751510075946 6.1268540102215345 -6.444773176521907 -1 1 0
4376 1183 1 -1.1128 6.566697595635447 1.2839793319784762 -1.8794587080201985 5 -1 0
3802 991 2 0.5564 2.9291615887510867 0.2241149016195072 -13.026441642283146 -3 1 0
3911 1028 1 -1.1128 -0.1231473065114543 0.447386284794113 -7.492008288570057 -1 1 0
4461 1211 2 0.5564 9.14820768256192 -0.10531439540455792 -12.20665807233441 0 -1 0
3209 794 1 -1.1128 0.23811726049754867 -0.08384558042389174 -4.744832786159033 3 2 0
3801 991 2 0.5564 4.211176247463006 0.12509455638953798 -13.82552425338801 -3 1 0
4573 1248 2 0.5564 -0.48901955809973197 0.008137550737284931 -0.6275033222981513 1 1 0
3096 756 2 0.5564 1.4437972318970955 -0.6082600010179207 -15.164990093305365 -4 -1 0
3912 1028 2 0.5564 -0.10089410077585367 0.6627802259608332 -6.559622568889837 -1 1 0
1615 262 2 0.5564 10.05133470805763 -0.24328563098976524 -1.0455222189424356 -1 -2 0
1630 267 2 0.5564 8.462037187890681 -0.36841441026702226 -15.61233782197017 5 -3 0
1560 244 2 0.5564 12.654896787135277 -0.18575234246782873 -1.1336504941892418 0 4 0
3602 925 1 -1.1128 2.1958257944528534 7.72476656013515 -15.820404425112494 -2 -2 0
1858 343 2 0.5564 11.164920385509594 7.041146493487757 -15.724181665758818 1 2 0
2554 575 2 0.5564 3.7559695025334188 -0.613181549211043 -1.301244655775211 -2 -2 0
2132 435 1 -1.1128 7.927003400323384 6.666807122122343 -13.247928690149193 -1 0 0
1857 343 2 0.5564 11.880733552251149 7.45707134743866 -14.45669759085687 1 2 0
3546 906 2 0.5564 0.9924450315673828 7.298087817510035 -12.279532453702243 1 -2 0
1923 365 2 0.5564 13.575926409643571 4.0661637617136845 -15.2725805278816 -2 0 0
2128 433 2 0.5564 3.576240542210136 7.404821618617365 -12.479823514020964 2 4 0
4460 1211 1 -1.1128 10.028553498550384 -0.4680975470271336 -12.304703286797825 0 -1 0
3823 998 2 0.5564 13.652435272198657 0.7077832324906179 19.73793516948441 3 -1 0
2661 611 2 0.5564 3.4324230166803664 1.2657702386018654 1.0732456663515122 0 3 0
3622 931 2 0.5564 7.016997851897469 0.6878659854577254 1.5101587415927957 -1 4 0
2690 621 1 -1.1128 0.6640677728423552 2.7255935921961547 3.186485970590289 0 -1 0
2662 611 2 0.5564 3.554176008576043 0.4022548109702222 2.3107492917546963 0 3 0
1452 208 2 0.5564 2.377366955570172 0.259342900041377 4.044153746405874 -1 1 0
1453 208 2 0.5564 2.3397238881268594 1.7250364723843756 3.6670318271811038 -1 1 0
1451 208 1 -1.1128 2.9211322323877367 1.0463503980358875 4.009933659241365 -1 1 0
3668 947 1 -1.1128 3.480822751965548 7.268200216567335 0.4337696833641157 -1 0 0
4407 1193 2 0.5564 -1.0741352022645718 6.64652710970077 15.879661163078737 1 1 0
949 40 2 0.5564 3.949012875043576 4.426078543981406 0.6235133242391783 1 5 0
947 40 1 -1.1128 4.737394039089004 4.851360018680668 0.9608928104817026 1 5 0
1524 232 2 0.5564 -0.30853924055789184 6.8406779919549505 18.362035190434288 1 0 0
948 40 2 0.5564 4.509890180992176 5.1032367898140745 1.8558979423861426 1 5 0
1191 121 2 0.5564 2.316694961791975 4.248589674599795 5.85708418323554 -1 2 0
4997 1390 1 -1.1128 0.7788863123846946 -0.7003480787948808 19.506919698809916 0 2 0
4884 1352 2 0.5564 -1.6724581455844179 5.623831720672952 5.212931004903984 2 2 0
2613 595 2 0.5564 2.7941005622338024 1.8313128508357837 5.775176712188561 -2 5 0
3117 763 2 0.5564 13.125280682074006 6.863806064727317 13.11665984729525 4 1 0
3610 927 2 0.5564 12.071970404226953 4.926212318050292 13.706329905675231 0 -1 0
1708 293 2 0.5564 4.987535780849287 0.5982840404996983 6.254619800632775 1 5 0
3844 1005 2 0.5564 -1.637423169656267 0.14072442574646546 5.513297277063747 3 0 0
3843 1005 2 0.5564 -0.8565681087145867 1.1403319627733355 6.339703323960442 3 0 0
3842 1005 1 -1.1128 -0.8953601208813442 0.21097083420286286 6.113834883274838 3 0 0
3366 846 2 0.5564 8.112379721571015 -0.5512806166928756 14.736719968282571 1 4 0
1190 121 1 -1.1128 2.1955576469527713 5.089919663954876 5.416945049538018 -1 2 0
2389 520 2 0.5564 -0.28180006148978165 5.57924467402509 3.656581946169047 2 2 0
1980 384 2 0.5564 9.378337934324922 7.135972701863567 7.025143896007908 -2 0 0
3869 1014 1 -1.1128 2.6678472900736048 2.9286286155728525 0.24486805545231255 -1 0 0
3871 1014 2 0.5564 1.714445108373578 3.008734421284978 0.21586788765224996 -1 0 0
2614 595 2 0.5564 3.5119277558891593 2.725505677430741 6.763629689538152 -2 5 0
2612 595 1 -1.1128 2.640615506219525 2.41346892924254 6.519333207813245 -2 5 0
2387 520 1 -1.1128 0.6053913579807991 5.5256781842917055 3.301259219792648 2 2 0
1974 382 2 0.5564 3.4657163320794133 5.688400833603679 4.031489804098322 1 2 0
2691 621 2 0.5564 -0.23862623229986313 2.6300037463767323 3.490199224078335 0 -1 0
2692 621 2 0.5564 0.8316807364696185 3.667232479767293 3.2246823736114716 0 -1 0
2388 520 2 0.5564 1.1735971048816505 5.539236034739475 4.071448166759963 2 2 0
3075 749 2 0.5564 6.430144855882283 5.277656393355852 0.7566748090386125 1 -1 0
3313 828 2 0.5564 5.860635674988586 6.3034904605708055 3.506493669207463 0 1 0
1071 81 2 0.5564 13.286144250609086 2.755673130391976 11.3932891855173 -1 -1 0
2039 404 1 -1.1128 -0.4338743169676814 7.5886049724430205 12.752097825127041 3 3 0
1429 200 2 0.5564 -0.15181498342447988 3.8185062917890162 6.9608728784158656 5 2 0
1427 200 1 -1.1128 0.09683182611668813 3.005428088043852 7.400545700509372 5 2 0
1428 200 2 0.5564 0.966512876481328 2.8025354910873914 7.055981454087813 5 2 0
1741 304 2 0.5564 -1.1842782217580154 2.6904678330114304 19.180569132125935 5 5 0
2168 447 1 -1.1128 10.591348144137585 0.2323227750054474 2.3477677947053275 0 1 0
437 2 4 0 12.2802 0 22.709149600932808 0 0 0
846 6 2 0.5564 0.5554703832016848 5.661063963429767 0.5048959162561761 0 0 0
4454 1209 1 -1.1128 8.604913569143859 1.623972266393527 17.74462778024171 3 2 0
1647 273 2 0.5564 14.066491280956328 6.743692573982515 19.48739198656792 4 -4 0
4158 1110 2 0.5564 5.955762969917148 2.5892657613593055 1.4786905295227992 -3 -3 0
3797 990 1 -1.1128 10.072425617584717 7.448190850891562 4.163693871114088 -4 0 0
1973 382 1 -1.1128 4.081521332583307 6.205370688691653 3.512105089035762 1 2 0
2594 589 1 -1.1128 -0.9491141998878189 0.397796908956582 13.99948959371112 0 -2 0
1446 206 2 0.5564 13.416889666678696 5.02892757781025 4.926738046736474 3 3 0
4999 1390 2 0.5564 1.2507011928658167 0.13248120452767434 19.51183033791871 0 2 0
1231 134 2 0.5564 13.08331592532787 5.956263736452608 2.719703982019564 0 -3 0
1596 256 2 0.5564 6.7034053666497835 7.149365315442701 14.958635584888253 1 0 0
3124 765 2 0.5564 10.976237297478143 3.0932697041646797 2.2156875548543735 1 -1 0
1739 304 1 -1.1128 -1.0242762052386185 3.5752292200011784 18.852190791785365 5 5 0
836 3 1 -1.1128 -1.5653435866669119 2.9323379053891494 0.738730915183918 0 0 0
838 3 2 0.5564 -1.1715031545814605 2.060131910807527 0.7192714646601117 0 0 0
1192 121 2 0.5564 2.545745171794095 5.734868649511044 6.031474916106688 -1 2 0
1898 357 1 -1.1128 12.207610727962356 6.729893456957094 8.730789444189343 2 4 0
3123 765 2 0.5564 10.404857921106979 4.339023444038147 1.572633448007636 1 -1 0
2186 453 1 -1.1128 4.256275700104181 4.46497295091402 9.205830367675354 3 0 0
3709 960 2 0.5564 6.986601734369839 1.8616574999499547 5.099092666892894 0 -4 0
1230 134 2 0.5564 11.811659443726812 5.248485702428244 3.1366411473040325 0 -3 0
3298 823 2 0.5564 8.433928924252108 4.614556177766952 5.450011121498429 6 -3 0
3296 823 1 -1.1128 7.480977121455746 4.565343350628149 5.525471177259528 6 -3 0
3708 960 2 0.5564 7.795818703757114 1.9620546566005277 3.8235596347010423 0 -4 0
3312 828 2 0.5564 7.0833466644351715 6.184130298992712 4.391158729603281 0 1 0
3311 828 1 -1.1128 6.79013545615961 6.528405678077346 3.547514442710788 0 1 0
3297 823 2 0.5564 7.233701906578005 3.828702529813878 4.966497732755574 6 -3 0
3707 960 1 -1.1128 7.1450842710600915 2.430882306157249 4.346032283367882 0 -4 0
924 32 2 0.5564 11.00030309763955 4.1854807394070646 5.555045108763843 1 0 0
923 32 1 -1.1128 10.229952105824458 3.712032775970776 5.240976613409312 1 0 0
925 32 2 0.5564 10.1986071988329 3.900091122219357 4.302953673833629 1 0 0
2849 674 1 -1.1128 12.11389363351875 1.9680644263341467 0.8226248868601312 1 -2 0
1767 313 2 0.5564 7.6413277539240445 0.22552681277334116 18.79209576349881 1 2 0
3076 749 2 0.5564 7.3513731712515265 5.863298550409273 1.8056064504545968 1 -1 0
1979 384 1 -1.1128 10.315554820496127 7.227533368482881 6.853465169218714 -2 0 0
1525 232 2 0.5564 1.1789483918605157 6.587880508530887 18.238062211614245 1 0 0
1981 384 2 0.5564 10.737093266731144 6.9401224792881795 7.663361860550897 -2 0 0
1425 199 2 0.5564 10.066617674209157 1.9580342556259078 5.086631837393214 -1 1 0
3074 749 1 -1.1128 7.330685943197438 5.571500925047101 0.8942017244911374 1 -1 0
3122 765 1 -1.1128 10.635692302432293 3.9636417982201504 2.422360933933703 1 -1 0