LAMMPS data file via write_data, version 2 Aug 2023, timestep = 7250000, units = real

3232 atoms
4 atom types
1600 bonds
1 bond types
800 angles
1 angle types
0 impropers
1 improper types

-1.8420299999999998 30.08661 xlo xhi
-0.709 33.323 ylo yhi
-150 150 zlo zhi

Masses

1 15.9994
2 1.00794
3 12.0107
4 12.0107

Pair Coeffs # lj/cut/tip4p/long

1 0.1852 3.1589
2 0 0
3 0.0859 3.3997
4 0.0859 3.3997

Bond Coeffs # harmonic

1 5000 0.9572

Angle Coeffs # harmonic

1 500 104.52

Atoms # full

1 1 3 0 0 0 -13.028967241974486 0 0 0
2 1 3 0 -1.22802 0.709 -13.028967241974486 0 0 0
3 1 3 0 -1.22802 2.127 -13.028967241974486 0 0 0
4 1 3 0 0 2.836 -13.028967241974486 0 0 0
5 1 3 0 2.45605 0 -13.028967241974486 0 0 0
6 1 3 0 1.22802 0.709 -13.028967241974486 0 0 0
7 1 3 0 1.22802 2.127 -13.028967241974486 0 0 0
8 1 3 0 2.45605 2.836 -13.028967241974486 0 0 0
9 1 3 0 4.9121 0 -13.028967241974486 0 0 0
10 1 3 0 3.68407 0.709 -13.028967241974486 0 0 0
11 1 3 0 3.68407 2.127 -13.028967241974486 0 0 0
12 1 3 0 4.9121 2.836 -13.028967241974486 0 0 0
14 1 3 0 6.14012 0.709 -13.028967241974486 0 0 0
15 1 3 0 6.14012 2.127 -13.028967241974486 0 0 0
53 1 3 0 0 4.254 -13.028967241974486 0 0 0
54 1 3 0 -1.22802 4.963 -13.028967241974486 0 0 0
55 1 3 0 -1.22802 6.381 -13.028967241974486 0 0 0
56 1 3 0 0 7.09 -13.028967241974486 0 0 0
57 1 3 0 2.45605 4.254 -13.028967241974486 0 0 0
58 1 3 0 1.22802 4.963 -13.028967241974486 0 0 0
59 1 3 0 1.22802 6.381 -13.028967241974486 0 0 0
60 1 3 0 2.45605 7.09 -13.028967241974486 0 0 0
61 1 3 0 4.9121 4.254 -13.028967241974486 0 0 0
62 1 3 0 3.68407 4.963 -13.028967241974486 0 0 0
63 1 3 0 3.68407 6.381 -13.028967241974486 0 0 0
64 1 3 0 4.9121 7.09 -13.028967241974486 0 0 0
66 1 3 0 6.14012 4.963 -13.028967241974486 0 0 0
67 1 3 0 6.14012 6.381 -13.028967241974486 0 0 0
3000 724 2 0.5564 -0.1718982790650335 1.8645283341881058 -9.466016828823191 0 0 0
2999 724 1 -1.1128 -1.0216932821735398 2.3049539860270802 -9.4552562804377 0 0 0
847 6 2 0.5564 13.343632620678077 0.7591069006253516 -2.300549486373924 -2 -1 0
2831 668 1 -1.1128 3.674728514985163 3.0270396379130178 -9.782091819974497 1 1 0
2054 409 1 -1.1128 -0.9719409578437918 5.015255143725748 -9.47937535637452 -3 0 0
2055 409 2 0.5564 -0.25764884992985065 5.128412050419402 -10.10644411258774 -3 0 0
2832 668 2 0.5564 3.546258103632028 2.821060775228499 -8.856185494482116 1 1 0
2833 668 2 0.5564 3.573766340134914 3.9775547350884914 -9.832743390286552 1 1 0
1297 156 2 0.5564 2.4786330921329345 6.392698982586433 -10.109781842794533 0 -1 0
1296 156 2 0.5564 3.985317110424169 6.245713594688118 -10.12373251234869 0 -1 0
1295 156 1 -1.1128 3.1838407631129417 5.800384160464892 -9.84886229481173 0 -1 0
2074 415 2 0.5564 5.833996916409944 3.0761128818780903 -9.584630047922076 4 -5 0
2056 409 2 0.5564 -1.1094357396095962 4.068778344429492 -9.440461536554201 -3 0 0
1387 186 2 0.5564 3.3601163996585552 6.367550061907694 -7.156024638414004 9 -5 0
2658 610 2 0.5564 -0.19227709710106664 2.9994923145256 -7.7627841362221615 0 -1 0
2073 415 2 0.5564 6.3658364633161995 4.120147430367842 -8.625966974267332 4 -5 0
2072 415 1 -1.1128 6.567184713961655 3.676549582469336 -9.449929247485331 4 -5 0
1655 276 1 -1.1128 1.3493100522644659 1.1714042780039537 -9.685923675396845 -3 0 0
1473 215 2 0.5564 1.001221709884684 7.086360569492632 -8.606810382895862 1 -2 0
2323 498 2 0.5564 -1.3999990370224404 1.0656809417981314 -5.02932800864132 1 -4 0
3001 724 2 0.5564 -1.5867635288324873 1.7237987277071303 -8.946150077030573 0 0 0
1063 78 2 0.5564 9.290278515495986 1.5340002633272956 -5.07312759204791 0 2 0
3063 745 2 0.5564 8.063913974306908 3.1453143503916663 -9.191997061775936 6 2 0
1550 241 1 -1.1128 10.281882165040845 5.315788245623372 -9.743453080626852 0 0 0
13 1 3 0 7.36814 0 -13.028967241974486 0 0 0
16 1 3 0 7.36814 2.836 -13.028967241974486 0 0 0
17 1 3 0 9.82419 0 -13.028967241974486 0 0 0
18 1 3 0 8.59617 0.709 -13.028967241974486 0 0 0
19 1 3 0 8.59617 2.127 -13.028967241974486 0 0 0
20 1 3 0 9.82419 2.836 -13.028967241974486 0 0 0
21 1 3 0 12.2802 0 -13.028967241974486 0 0 0
22 1 3 0 11.0522 0.709 -13.028967241974486 0 0 0
23 1 3 0 11.0522 2.127 -13.028967241974486 0 0 0
24 1 3 0 12.2802 2.836 -13.028967241974486 0 0 0
26 1 3 0 13.5083 0.709 -13.028967241974486 0 0 0
27 1 3 0 13.5083 2.127 -13.028967241974486 0 0 0
65 1 3 0 7.36814 4.254 -13.028967241974486 0 0 0
68 1 3 0 7.36814 7.09 -13.028967241974486 0 0 0
69 1 3 0 9.82419 4.254 -13.028967241974486 0 0 0
70 1 3 0 8.59617 4.963 -13.028967241974486 0 0 0
71 1 3 0 8.59617 6.381 -13.028967241974486 0 0 0
72 1 3 0 9.82419 7.09 -13.028967241974486 0 0 0
73 1 3 0 12.2802 4.254 -13.028967241974486 0 0 0
74 1 3 0 11.0522 4.963 -13.028967241974486 0 0 0
75 1 3 0 11.0522 6.381 -13.028967241974486 0 0 0
76 1 3 0 12.2802 7.09 -13.028967241974486 0 0 0
78 1 3 0 13.5083 4.963 -13.028967241974486 0 0 0
79 1 3 0 13.5083 6.381 -13.028967241974486 0 0 0
3062 745 1 -1.1128 8.988655745856656 2.9019685909417627 -9.148757483640585 6 2 0
3064 745 2 0.5564 8.985134063503581 1.9447753833796357 -9.147754485034161 6 2 0
1552 241 2 0.5564 9.884916963422002 4.445333152001648 -9.774523364090372 0 0 0
1551 241 2 0.5564 9.542446476109836 5.919443117770414 -9.814667430865951 0 0 0
955 42 2 0.5564 13.045257073770607 1.2301810671774305 -6.431586794704259 0 0 0
1818 330 2 0.5564 9.62468846024791 -0.6787299248185162 -9.514622277011076 1 0 0
1817 330 1 -1.1128 9.227169760711105 0.18578857263322293 -9.618634648478656 1 0 0
1155 109 2 0.5564 11.964440490275486 4.915761281482591 -8.995657582888212 -1 3 0
2276 483 1 -1.1128 13.737774443821502 5.4224056716761755 -0.593213540955514 0 4 0
2766 646 2 0.5564 7.515967981852774 1.026111533362679 -0.6529579711216983 0 -2 0
2525 566 1 -1.1128 13.860195547317302 6.7557207932941195 -5.03098011273923 1 0 0
2448 540 2 0.5564 3.3839063876066677 0.34353294393020384 -0.7240892230207124 -1 2 0
1154 109 1 -1.1128 12.877060553365233 4.750773744239653 -8.758713685831536 -1 3 0
1156 109 2 0.5564 13.34813104499706 5.526233174772715 -9.063656353725998 -1 3 0
954 42 2 0.5564 13.374702072241822 2.6221714191710905 -5.935871626832687 0 0 0
1363 178 2 0.5564 11.968540379425209 7.341272795343385 -7.945525042175903 -1 -2 0
1626 266 2 0.5564 9.509915255006494 -0.08588767581506675 -1.0889919376604706 -2 1 0
1657 276 2 0.5564 1.987622039526176 1.8813175047599058 -9.755327014738524 -3 0 0
1819 330 2 0.5564 8.756919435921636 0.13515287508849946 -10.450822226815873 1 0 0
2079 417 2 0.5564 1.879175045244116 5.3122559569482375 -6.120478658506548 5 5 0
2770 647 2 0.5564 5.419904852783175 5.400677030135028 -6.785479770231655 -2 -1 0
2078 417 1 -1.1128 1.67183526745738 5.722091334086806 -6.960289195055075 5 5 0
1656 276 2 0.5564 1.8626939488386627 0.41359549396357503 -9.405925602325867 -3 0 0
1304 159 1 -1.1128 1.4625932838144926 3.003654371501849 -1.578820043584551 -4 3 0
2991 721 2 0.5564 0.23254714295214168 2.2270522141782947 -2.6536653508887222 -2 -2 0
943 38 2 0.5564 -0.4684499355916146 5.831690453491847 -2.542564540256267 -3 -3 0
1214 129 1 -1.1128 4.660534870140875 1.158962434071983 -4.830476369688112 -2 3 0
1216 129 2 0.5564 4.23748048535134 1.5179412992873527 -5.610471952841154 -2 3 0
2447 540 1 -1.1128 3.3045295504792245 1.290165260544659 -0.6065354880426232 -1 2 0
1305 159 2 0.5564 2.1591399872305277 2.488431023617134 -1.1718735868483992 -4 3 0
1445 206 1 -1.1128 5.2793701740273375 2.2433140122081565 -2.058551626733992 -2 2 0
2715 629 2 0.5564 6.2268836867578665 5.320554578244239 -3.541089721022079 1 -2 0
2269 480 2 0.5564 2.194930366278794 2.769968316959289 -7.0694540129988335 -1 1 0
1318 163 2 0.5564 11.951078789901832 2.785732108611399 -0.3312257882983758 -4 6 0
3087 753 2 0.5564 -0.5455656246278732 -0.18558740582394875 -9.982413946599559 4 2 0
2659 610 2 0.5564 -0.29259049528295816 2.9990366240021067 -6.252210093884398 0 -1 0
2717 630 1 -1.1128 8.425169515793439 7.3926754201484925 -9.427537794248899 0 5 0
3149 774 1 -1.1128 4.817371015139623 5.271746885179317 -1.9146985137433177 -3 1 0
3151 774 2 0.5564 4.6649589516440395 4.3272322705487 -1.9446295750923868 -3 1 0
3150 774 2 0.5564 3.995120364159897 5.6572290214516245 -2.2172566953490773 -3 1 0
2657 610 1 -1.1128 0.28792123491209787 2.752793168569394 -6.972351993181698 0 -1 0
2267 480 1 -1.1128 3.0899310572851757 2.818932629021169 -6.733579731632735 -1 1 0
1232 135 1 -1.1128 1.957655210726352 4.556290909891596 -4.439164810921473 3 0 0
1446 206 2 0.5564 5.076828604807639 1.896781226982128 -2.927532366810892 -2 2 0
1447 206 2 0.5564 4.702932090605566 1.759608979401208 -1.466955257003984 -2 2 0
941 38 1 -1.1128 0.07858771055170144 6.53555096744067 -2.193900943698681 -3 -3 0
1234 135 2 0.5564 2.3196207716245314 5.357615561262921 -4.060887507992998 3 0 0
1233 135 2 0.5564 1.9917842950993758 3.917901732898172 -3.726755154268101 3 0 0
942 38 2 0.5564 0.9527583370667343 6.353273918855611 -2.538623224389907 -3 -3 0
1093 88 2 0.5564 5.317829213454324 5.930748508153065 -0.26121869561213173 1 0 0
2824 665 2 0.5564 12.53826168614001 1.7471685031978834 -8.972565081365532 -2 3 0
1306 159 2 0.5564 0.8308424689978904 3.1513071694409835 -0.8750278598887441 -4 3 0
2268 480 2 0.5564 3.0087248677092924 3.284358468424921 -5.901103228388113 -1 1 0
2992 721 2 0.5564 -0.6887923363550829 1.0975582521958311 -2.2446722278869595 -2 -2 0
1215 129 2 0.5564 5.523951107532974 0.8780741515578986 -5.133540548294141 -2 3 0
2828 667 1 -1.1128 6.5021872839152985 1.636377303433768 -7.243390016791253 4 -1 0
2769 647 2 0.5564 6.374745360944978 4.525911633411341 -6.001284512569824 -2 -1 0
3160 777 2 0.5564 6.917841063821967 -0.006690297874329433 -7.365797138850388 2 3 0
2830 667 2 0.5564 5.951504261018836 2.4188490226117207 -7.216496595749442 4 -1 0
2080 417 2 0.5564 1.227998723223884 5.036134832154608 -7.458993865487204 5 5 0
2768 647 1 -1.1128 5.796157186265305 4.520790874230899 -6.763807890245558 -2 -1 0
953 42 1 -1.1128 13.481806017679808 1.696156395016644 -5.7184731918275675 0 0 0
2990 721 1 -1.1128 -0.5061792517900756 1.7029626956648876 -2.963261716775071 -2 -2 0
2767 646 2 0.5564 6.802405090522219 0.19114022001286524 -1.6948539360867354 0 -2 0
2489 554 1 -1.1128 2.93806814329968 6.8827000327800505 -3.065995059775004 3 1 0
2491 554 2 0.5564 3.304417666752207 7.46181157501508 -3.7343145942742857 3 1 0
2454 542 2 0.5564 10.595548544984856 7.047933464086013 -2.165380445345072 3 0 0
2947 706 2 0.5564 6.433158645469876 7.382236918111162 -9.720873776389418 1 5 0
3208 793 2 0.5564 10.472001475576283 5.336115344171025 -4.027502357504437 -3 2 0
1328 167 1 -1.1128 8.238140405422554 5.439554961961261 -0.3277101620301488 1 3 0
2708 627 1 -1.1128 8.883564278181101 2.884580726541459 -6.376635978520221 -3 -4 0
1316 163 1 -1.1128 11.729053271655268 3.5153143055859304 -0.9097151330942153 -4 6 0
2512 561 2 0.5564 -1.2697120374142838 3.8186364555000734 -2.9704639522494043 4 0 0
2453 542 1 -1.1128 10.45119584238632 7.266816066537217 -3.0859707151936764 3 0 0
1386 186 2 0.5564 4.422854893582099 7.111759551282838 -7.9361775180640075 9 -5 0
2527 566 2 0.5564 13.511202219936793 5.914181024642975 -5.324658036604753 1 0 0
1837 336 2 0.5564 6.920656068475863 2.779884302709139 -2.506805534765399 2 -1 0
1317 163 2 0.5564 11.575849084093102 3.1076715219577893 -1.7621185004725157 -4 6 0
2334 502 2 0.5564 11.758721718291385 4.610858628666936 -5.609758370530315 -1 -2 0
3118 763 2 0.5564 12.712954534838806 0.04305065842897525 -8.014185656498741 4 1 0
2333 502 1 -1.1128 12.605416027564992 4.36683418670248 -5.983651810956673 -1 -2 0
2709 627 2 0.5564 9.025447273173723 3.7523364091187386 -5.998346286252101 -3 -4 0
2120 431 1 -1.1128 -1.775499800816774 4.413249476873449 -5.904788408597537 1 3 0
2040 404 2 0.5564 13.736181188741863 7.454869796622067 -0.19977517257502225 0 -1 0
1472 215 1 -1.1128 0.6343560703526414 7.667764086768503 -9.27285439722965 1 -2 0
2829 667 2 0.5564 7.350876329363732 1.928663371568836 -6.910925785692387 4 -1 0
2510 561 1 -1.1128 -1.6017537670265078 4.6371171416728565 -3.3393422604307026 4 0 0
1954 375 2 0.5564 10.83997564926003 1.6164857440015692 -3.715410334222336 -2 -1 0
932 35 1 -1.1128 8.317536187924265 7.514290728715612 -4.629382233655769 -1 -2 0
933 35 2 0.5564 9.03821009494983 7.3778971786492 -4.01435346953725 -1 -2 0
2714 629 1 -1.1128 7.032623983331356 5.262225116948348 -4.054522957786418 1 -2 0
3116 763 1 -1.1128 12.006283486867051 0.40993671318447833 -7.482917718197894 4 1 0
1735 302 2 0.5564 10.635250360086417 -0.25806337646136795 -4.163772495345453 2 0 0
2710 627 2 0.5564 9.139111341685341 2.9781380227881082 -7.294338703304781 -3 -4 0
1385 186 1 -1.1128 4.1893495988503195 6.833881337439911 -7.050462040592088 9 -5 0
1062 78 2 0.5564 8.722721934606927 1.8987827864822089 -3.717875014767086 0 2 0
3207 793 2 0.5564 9.378866736800358 5.805996765863382 -4.963538213904741 -3 2 0
2081 418 1 -1.1128 6.924722802516353 -0.039629138128334865 -3.9227254520351402 0 2 0
2716 629 2 0.5564 7.199948179170544 6.1599859298411985 -4.341341116270658 1 -2 0
1329 167 2 0.5564 8.132839395961273 4.618515155296723 -0.8083736222796227 1 3 0
2945 706 1 -1.1128 5.48230909797125 7.452384287461036 -9.636017845309068 1 5 0
3206 793 1 -1.1128 10.020477824631309 5.106545508998522 -4.8396955919017906 -3 2 0
1061 78 1 -1.1128 9.263473710974434 1.2449764436606001 -4.160998652326792 0 2 0
1625 266 1 -1.1128 10.308135508353676 -0.05669760305556643 -0.5615182961618317 -2 1 0
1835 336 1 -1.1128 7.777375091051483 3.0001817512993094 -2.8725085101981613 2 -1 0
3117 763 2 0.5564 11.230522559285317 -0.08977088432199459 -7.7373214864174376 4 1 0
2335 502 2 0.5564 12.545235941132729 4.625642559896427 -6.903234685412785 -1 -2 0
1953 375 2 0.5564 12.264166945546167 1.901681129497572 -4.142315849220229 -2 -1 0
1836 336 2 0.5564 7.593762329620949 3.679071938889441 -3.5218392875141893 2 -1 0
1952 375 1 -1.1128 11.684759468362929 1.9172403829956137 -3.3805559796767857 -2 -1 0
2037 403 2 0.5564 -0.7385346668894284 6.979660902547241 -0.4585207050745889 2 0 0
2083 418 2 0.5564 7.881709817070187 -0.04043951000998522 -3.9025068519038415 0 2 0
2822 665 1 -1.1128 13.03203964158565 2.234897874590252 -9.63175863022579 -2 3 0
2823 665 2 0.5564 13.081994773610024 3.125301354024378 -9.284017110557611 -2 3 0
2490 554 2 0.5564 2.771095110597179 7.455479638826829 -2.3174791780657205 3 1 0
1362 178 2 0.5564 10.794382710632721 7.012948485924519 -8.842995713845243 -1 -2 0
3021 731 2 0.5564 4.505556686765445 -0.5956757506050213 -4.3837212863381785 3 4 0
2765 646 1 -1.1128 7.50310070571007 0.1524727288002566 -1.0438822415470799 0 -2 0
2277 483 2 0.5564 13.084394370062336 4.812162237176806 -0.9351654530800475 0 4 0
2718 630 2 0.5564 8.342230178058836 7.665700918620612 -8.513855206520224 0 5 0
1642 271 2 0.5564 11.58482598776301 7.7685875424128605 -0.12147438938042901 -1 -3 0
1361 178 1 -1.1128 11.446620535403087 7.691218113641223 -8.667584871632009 -1 -2 0
1640 271 1 -1.1128 10.806531716613204 7.271366792837983 -0.3729979226391106 -1 -3 0
970 47 2 0.5564 -1.2858938713346697 3.328461899057487 -0.047379371771443614 1 4 0
2121 431 2 0.5564 -1.8410575659949053 4.4656568585697265 -4.9512743228584855 1 3 0
1474 215 2 0.5564 -0.27863825171170076 7.786676979309248 -9.01105356943949 1 -2 0
2594 589 1 -1.1128 2.8812923046722907 -0.7001667745496576 -8.43262340249053 -1 3 0
3109 760 2 0.5564 0.46339013605565366 4.069068964241724 6.711527075721028 1 0 0
3218 797 1 -1.1128 0.8862046723363813 -0.0012332865765211827 6.736031552540528 -1 1 0
1606 259 2 0.5564 -0.570728209444733 0.19988970767624253 2.753514417615601 0 1 0
1627 266 2 0.5564 9.998441793753038 -0.07972831513607778 0.34390761317141433 -2 1 0
1092 88 2 0.5564 6.556326000535037 6.286240525930903 0.533543831803831 1 0 0
2310 494 2 0.5564 0.14315965107532286 2.118574901578237 2.862521198570792 -2 0 0
2858 677 1 -1.1128 3.0074989616228254 -0.35278732797801504 4.405629653070537 -2 -3 0
1289 154 1 -1.1128 6.239525376959937 -0.27892536425315784 3.915641192327844 1 -4 0
3108 760 2 0.5564 -0.16103204064875112 4.706550206409622 7.9344790934225555 1 0 0
864 12 2 0.5564 0.36084701836162886 7.141114636043924 4.8416579637808015 3 -2 0
1605 259 2 0.5564 -1.1299267830654864 0.1204660348110766 4.158109336650431 0 1 0
1020 64 2 0.5564 1.9750717196573855 3.508688416575057 3.8308055615303944 -3 2 0
2172 448 2 0.5564 4.9168373827708285 3.7753205133447194 4.98544473418513 1 2 0
1604 259 1 -1.1128 -0.9367114704827523 0.7396569029188451 3.4541867978030205 0 1 0
2173 448 2 0.5564 5.8457775776097485 3.8904900386303236 6.17527769857546 1 2 0
914 29 1 -1.1128 3.9972771895510677 1.1193936953617967 6.725513837576262 -3 2 0
915 29 2 0.5564 4.222338492317981 1.080129054508681 7.65505198335195 -3 2 0
916 29 2 0.5564 4.494587611692697 1.865047776778151 6.389475201605663 -3 2 0
2171 448 1 -1.1128 5.446813322613619 3.250719584423253 5.585571138801174 1 2 0
1693 288 2 0.5564 3.743552842779714 0.9182824363386989 2.9507815625378284 -1 3 0
2236 469 2 0.5564 7.217776608457473 4.827067702997252 7.996898323926353 0 0 0
1692 288 2 0.5564 3.0787408337323594 2.1715205818434025 2.4222785760698655 -1 3 0
1691 288 1 -1.1128 3.6032683402152443 1.4194782917094009 2.1474407823330566 -1 3 0
1019 64 1 -1.1128 2.833890148915736 3.6451886845042782 4.230847710348208 -3 2 0
1021 64 2 0.5564 3.143741384218614 4.470643301869666 3.858215902304231 -3 2 0
2235 469 2 0.5564 6.0151894260238645 5.4211547095233055 8.698855167883579 0 0 0
2234 469 1 -1.1128 6.3146934439941695 4.632120852265451 8.247239686430328 0 0 0
436 2 4 0 9.82419 2.836 12.736959109302104 0 0 0
3107 760 1 -1.1128 -0.1640156884955661 4.741108419765173 6.977907084974751 1 0 0
2045 406 1 -1.1128 1.5557061121425675 2.6840558544787156 6.48889895427834 -1 0 0
2047 406 2 0.5564 2.2316701354901065 2.779352374909028 5.817910776788916 -1 0 0
2309 494 1 -1.1128 0.4308690087329533 3.0233873807698157 2.740970909681519 -2 0 0
2036 403 1 -1.1128 -0.9751715234019586 6.863534860619131 0.46167175110600245 2 0 0
3114 762 2 0.5564 3.8556531032627617 6.827906269903862 3.192738816457932 2 -1 0
1290 154 2 0.5564 6.928286641013658 0.3769968461743337 4.023378492825558 1 -4 0
2883 685 2 0.5564 1.7888606814205918 -0.35437372454201627 2.629929689033555 1 0 0
863 12 1 -1.1128 0.6435874584750042 7.158894456305765 5.755978413402118 3 -2 0
2695 622 2 0.5564 7.225227681812139 2.7286278813826748 4.584201803713243 -3 1 0
437 2 4 0 12.2802 0 12.736959109302104 0 0 0
3113 762 1 -1.1128 3.758682260488653 5.994717922355172 2.7316205494104655 2 -1 0
876 16 2 0.5564 6.20969566184029 1.374514858288578 1.498360962751999 0 -3 0
3220 797 2 0.5564 0.8738405634056806 -0.06222141191853202 7.691210138621249 -1 1 0
3084 752 2 0.5564 -1.0136559236776201 3.3833855245852007 4.11310899073102 -1 -3 0
2046 406 2 0.5564 1.217833969165758 1.79709207981193 6.364904734171265 -1 0 0
2311 494 2 0.5564 0.11561154604970646 3.260344964480702 1.8687890705646168 -2 0 0
997 56 2 0.5564 11.670935080625084 6.255187383620334 8.461037477737413 3 -4 0
2180 451 1 -1.1128 13.100188141715591 2.3645045028433755 1.610132560362172 -3 3 0
487 2 4 0 8.59617 6.381 12.736959109302104 0 0 0
2817 663 2 0.5564 2.5179568185769496 6.829234291898715 9.653737149127528 5 -2 0
865 12 2 0.5564 0.5262127496708126 6.259217248834426 6.0610095223204645 3 -2 0
2816 663 1 -1.1128 2.8792067491815616 5.9738360753828434 9.421302937411772 5 -2 0
968 47 1 -1.1128 -0.49137448688179464 3.7459003753806326 0.2853621323882538 1 4 0
2860 677 2 0.5564 3.3923311946027885 0.16614050682471188 5.1119249304561105 -2 -3 0
963 45 2 0.5564 -1.8012983835191538 7.524051535355659 8.242358509531984 -2 4 0
837 3 2 0.5564 -1.7980077768585785 3.0085026410484157 9.048055876584524 -3 4 0
1794 322 2 0.5564 12.547152036580696 0.2077393476335716 9.20988143170045 2 1 0
1722 298 2 0.5564 12.535914850549098 5.771721458279686 3.6454066773796194 -4 -6 0
2261 478 1 -1.1128 10.628655085577794 5.1107145507713305 1.221075327048234 -2 2 0
2312 495 1 -1.1128 8.88744421955081 6.1144492329010856 8.033898227609965 3 3 0
969 47 2 0.5564 -0.750812302716358 4.650499804111697 0.46036143479773417 1 4 0
2254 475 2 0.5564 10.297873596511852 0.6743788669095927 5.280921959031221 3 -2 0
875 16 1 -1.1128 7.1555433738607075 1.513828792511761 1.4514956135835604 0 -3 0
2262 478 2 0.5564 10.665430884704596 5.905500911554399 0.6889130635679315 -2 2 0
1222 131 2 0.5564 9.300503735208942 3.105613555871757 9.57562912973866 -3 1 0
1915 362 2 0.5564 11.943774692829209 6.3219967506785 5.675748076097562 5 2 0
877 16 2 0.5564 7.360882574938048 2.0306870732995 2.2305516255791153 0 -3 0
838 3 2 0.5564 -1.7091313490038549 3.80996792347659 7.766786458646732 -3 4 0
2342 505 1 -1.1128 5.377534571160482 7.245598163020048 8.879404360003997 -4 -1 0
2694 622 2 0.5564 8.610801934214988 2.127547232072096 4.480340811161986 -3 1 0
2274 482 2 0.5564 8.622017094850817 0.29047274271787965 1.6805165744982271 -1 -3 0
3200 791 1 -1.1128 11.552650106920737 3.4885721520713235 6.821666839335612 3 -1 0
3038 737 1 -1.1128 13.032688389841987 0.25684369637880117 6.09788758573833 3 1 0
1381 184 2 0.5564 10.544254811567543 2.3744616586758864 3.6177804429731175 2 -2 0
1379 184 1 -1.1128 10.693016161029501 2.4244986852758146 2.6735329022380783 2 -2 0
1380 184 2 0.5564 10.411441630133764 3.307068823421406 2.4326619921781165 2 -2 0
2273 482 1 -1.1128 9.461769228522655 0.05010648918059467 2.0720278207249123 -1 -3 0
2275 482 2 0.5564 9.829017069532306 0.8787462217874638 2.379797778935086 -1 -3 0
3181 784 2 0.5564 6.444927097412695 7.530369901375573 5.977418131771325 -2 0 0
2449 540 2 0.5564 3.3712637376656 1.4209680546873802 0.33933427210530176 -1 2 0
435 2 4 0 8.59617 2.127 12.736959109302104 0 0 0
3201 791 2 0.5564 11.163040373199795 4.343207846751216 6.637177403367412 3 -1 0
2882 685 1 -1.1128 1.143138594257552 -0.6789913743976016 2.0023129287464445 1 0 0
2393 522 1 -1.1128 9.131440334102424 1.0765193323096645 9.210661095376393 -1 2 0
3202 791 2 0.5564 11.632831210505323 3.462162126622423 7.7751390787735675 3 -1 0
2394 522 2 0.5564 10.020704139799381 0.8429711304120578 8.944389069794326 -1 2 0
2252 475 1 -1.1128 10.270541065104878 1.62995570465241 5.232335818105882 3 -2 0
1913 362 1 -1.1128 11.757719298729343 6.497515524022514 6.598141366860659 5 2 0
1768 313 2 0.5564 13.226258711782952 3.596057274160076 6.553549701704047 -2 2 0
1294 155 2 0.5564 8.177731476353037 6.448368138439938 6.274745971845787 -3 2 0
2181 451 2 0.5564 13.394107596010826 1.4623051478215099 1.7361509055635516 -3 3 0
1998 390 2 0.5564 13.958958280689535 1.3078159085113776 4.871513238294818 -5 -2 0
1721 298 1 -1.1128 11.653573721423895 6.089984952441864 3.836233806469972 -4 -6 0
2693 622 1 -1.1128 7.792248997312995 2.2310079538588328 3.9950546375148903 -3 1 0
1723 298 2 0.5564 11.144114445210377 5.866376032347577 3.0573344166109897 -4 -6 0
1613 262 1 -1.1128 0.4052692011080447 6.805041319187053 2.894816583762772 1 -1 0
2263 478 2 0.5564 10.828243429966546 4.402512137302351 0.6088232722067632 -2 2 0
1615 262 2 0.5564 -0.1986986938570297 7.045906471316811 2.192363079042843 1 -1 0
1614 262 2 0.5564 0.6493283711381543 5.8998663438214605 2.70161611026152 1 -1 0
2343 505 2 0.5564 6.218298831399204 7.525136813301953 9.241631583476158 -4 -1 0
2314 495 2 0.5564 9.086539029718121 5.498777737477231 8.739267436428122 3 3 0
3065 746 1 -1.1128 13.879024471477956 -0.3300002197236714 1.9146477754793494 0 2 0
442 2 4 0 13.5083 0.709 12.736959109302104 0 0 0
3040 737 2 0.5564 12.404160014304917 0.33178567233018963 6.815918700300505 3 1 0
1914 362 2 0.5564 11.127892157032027 7.21815551954448 6.583014187168593 5 2 0
884 19 1 -1.1128 0.3894434347486057 5.0388735436563055 9.549474346708589 -2 0 0
3219 797 2 0.5564 1.5537833388200564 -0.6309616737155991 6.463972615961834 -1 1 0
2007 393 2 0.5564 -0.14072691796609377 2.025110746735487 9.787255343882254 0 -1 0
2019 397 2 0.5564 1.9255572703618367 2.565453520515468 8.425475406176206 0 2 0
1292 155 1 -1.1128 7.732076583691199 6.581432987897391 5.438133230582593 -3 2 0
2205 459 2 0.5564 7.137234172495622 1.9539672143956914 9.275368742153601 -5 -4 0
1221 131 2 0.5564 8.397597530247 3.8459585559089855 10.53923956546554 -3 1 0
2008 393 2 0.5564 -0.5748504821136644 0.6053731907145802 9.490977171374514 0 -1 0
3100 757 2 0.5564 4.705277082751396 1.3265382179023477 9.966492002260932 3 -4 0
3099 757 2 0.5564 3.193007964430394 1.3843154640972377 10.006537616155581 3 -4 0
2006 393 1 -1.1128 -0.9190151410004385 1.478028592577861 9.681397769410886 0 -1 0
482 2 4 0 6.14012 4.963 12.736959109302104 0 0 0
480 2 4 0 4.9121 7.09 12.736959109302104 0 0 0
483 2 4 0 6.14012 6.381 12.736959109302104 0 0 0
417 2 4 0 0 0 12.736959109302104 0 0 0
418 2 4 0 -1.22802 0.709 12.736959109302104 0 0 0
419 2 4 0 -1.22802 2.127 12.736959109302104 0 0 0
420 2 4 0 0 2.836 12.736959109302104 0 0 0
421 2 4 0 2.45605 0 12.736959109302104 0 0 0
422 2 4 0 1.22802 0.709 12.736959109302104 0 0 0
423 2 4 0 1.22802 2.127 12.736959109302104 0 0 0
424 2 4 0 2.45605 2.836 12.736959109302104 0 0 0
425 2 4 0 4.9121 0 12.736959109302104 0 0 0
426 2 4 0 3.68407 0.709 12.736959109302104 0 0 0
427 2 4 0 3.68407 2.127 12.736959109302104 0 0 0
428 2 4 0 4.9121 2.836 12.736959109302104 0 0 0
430 2 4 0 6.14012 0.709 12.736959109302104 0 0 0
431 2 4 0 6.14012 2.127 12.736959109302104 0 0 0
469 2 4 0 0 4.254 12.736959109302104 0 0 0
470 2 4 0 -1.22802 4.963 12.736959109302104 0 0 0
471 2 4 0 -1.22802 6.381 12.736959109302104 0 0 0
472 2 4 0 0 7.09 12.736959109302104 0 0 0
473 2 4 0 2.45605 4.254 12.736959109302104 0 0 0
474 2 4 0 1.22802 4.963 12.736959109302104 0 0 0
475 2 4 0 1.22802 6.381 12.736959109302104 0 0 0
476 2 4 0 2.45605 7.09 12.736959109302104 0 0 0
477 2 4 0 4.9121 4.254 12.736959109302104 0 0 0
478 2 4 0 3.68407 4.963 12.736959109302104 0 0 0
479 2 4 0 3.68407 6.381 12.736959109302104 0 0 0
2182 451 2 0.5564 12.238684597234778 2.3965612567318044 2.0260864092534328 -3 3 0
2818 663 2 0.5564 3.810908756521325 6.138259619689633 9.275944633539131 5 -2 0
3098 757 1 -1.1128 3.9245323350027026 0.7780387735246819 9.890186247519203 3 -4 0
2204 459 1 -1.1128 6.230084234520632 2.246739548656286 9.362528183941825 -5 -4 0
2206 459 2 0.5564 6.23031846080207 3.1368714239085613 9.010526359931033 -5 -4 0
3085 752 2 0.5564 -1.1585642506995635 4.3068835797327605 5.303927853929699 -1 -3 0
2020 397 2 0.5564 1.3219182211496312 3.3892457126512907 9.543011085418938 0 2 0
2018 397 1 -1.1128 1.7325832211226448 2.5436074020604003 9.362768837603149 0 2 0
886 19 2 0.5564 1.2241240286693622 5.4485512658611555 9.32207314073758 -2 0 0
1220 131 1 -1.1128 8.970577674963682 3.9796123158623846 9.78421464234826 -3 1 0
432 2 4 0 7.36814 2.836 12.736959109302104 0 0 0
1293 155 2 0.5564 8.437652163336745 6.7573974542641935 4.815692139642422 -3 2 0
440 2 4 0 12.2802 2.836 12.736959109302104 0 0 0
490 2 4 0 11.0522 4.963 12.736959109302104 0 0 0
1795 322 2 0.5564 12.113187629603098 1.648166098135003 9.040334553557425 2 1 0
995 56 1 -1.1128 11.865377418571303 6.277172827113228 9.398026383034843 3 -4 0
434 2 4 0 8.59617 0.709 12.736959109302104 0 0 0
494 2 4 0 13.5083 4.963 12.736959109302104 0 0 0
433 2 4 0 9.82419 0 12.736959109302104 0 0 0
3039 737 2 0.5564 13.887480859468749 0.23750499458205496 6.528223867354587 3 1 0
1091 88 1 -1.1128 5.653338506661385 6.561734027268768 0.3755902931613496 1 0 0
1793 322 1 -1.1128 11.946313032163127 0.7639165443537317 8.714004745369925 2 1 0
443 2 4 0 13.5083 2.127 12.736959109302104 0 0 0
2313 495 2 0.5564 8.439372252142148 6.840275992181066 8.46823222917617 3 3 0
486 2 4 0 8.59617 4.963 12.736959109302104 0 0 0
438 2 4 0 11.0522 0.709 12.736959109302104 0 0 0
495 2 4 0 13.5083 6.381 12.736959109302104 0 0 0
3115 762 2 0.5564 4.164563715745712 6.144340913162041 1.8777437509285395 2 -1 0
2253 475 2 0.5564 10.838914130602213 1.9228255134105483 5.944664885445298 3 -2 0
885 19 2 0.5564 -0.13190336599497454 5.74858541013582 9.924627183357284 -2 0 0
489 2 4 0 12.2802 4.254 12.736959109302104 0 0 0
2585 586 1 -1.1128 12.403143989533822 3.472135841792381 9.392082316099954 2 2 0
996 56 2 0.5564 12.78528791337881 6.537329720914782 9.44618467113323 3 -4 0
484 2 4 0 7.36814 7.09 12.736959109302104 0 0 0
492 2 4 0 12.2802 7.09 12.736959109302104 0 0 0
488 2 4 0 9.82419 7.09 12.736959109302104 0 0 0
2395 522 2 0.5564 8.651830108267271 0.24823780617675323 9.198110723692682 -1 2 0
491 2 4 0 11.0522 6.381 12.736959109302104 0 0 0
485 2 4 0 9.82419 4.254 12.736959109302104 0 0 0
481 2 4 0 7.36814 4.254 12.736959109302104 0 0 0
2587 586 2 0.5564 11.923617233207887 4.263698596301974 9.636455436844377 2 2 0
2586 586 2 0.5564 13.324784342025833 3.706802426758625 9.500460282610728 2 2 0
439 2 4 0 11.0522 2.127 12.736959109302104 0 0 0
429 2 4 0 7.36814 0 12.736959109302104 0 0 0
3083 752 1 -1.1128 -1.6680547725982906 3.8411102765103324 4.640823820409262 -1 -3 0
2278 483 2 0.5564 13.960353530420525 5.07625863525516 0.2710057024256375 0 4 0
1000 57 2 0.5564 6.728890824675431 -0.6784125308683212 5.752877470360245 2 -2 0
1330 167 2 0.5564 8.991207514740552 5.288362155518714 0.24348433334145805 1 3 0
105 1 3 0 0 8.508 -13.028967241974486 0 0 0
106 1 3 0 -1.22802 9.217 -13.028967241974486 0 0 0
107 1 3 0 -1.22802 10.635 -13.028967241974486 0 0 0
108 1 3 0 0 11.344 -13.028967241974486 0 0 0
109 1 3 0 2.45605 8.508 -13.028967241974486 0 0 0
110 1 3 0 1.22802 9.217 -13.028967241974486 0 0 0
111 1 3 0 1.22802 10.635 -13.028967241974486 0 0 0
112 1 3 0 2.45605 11.344 -13.028967241974486 0 0 0
113 1 3 0 4.9121 8.508 -13.028967241974486 0 0 0
114 1 3 0 3.68407 9.217 -13.028967241974486 0 0 0
115 1 3 0 3.68407 10.635 -13.028967241974486 0 0 0
116 1 3 0 4.9121 11.344 -13.028967241974486 0 0 0
118 1 3 0 6.14012 9.217 -13.028967241974486 0 0 0
119 1 3 0 6.14012 10.635 -13.028967241974486 0 0 0
157 1 3 0 0 12.762 -13.028967241974486 0 0 0
158 1 3 0 -1.22802 13.471 -13.028967241974486 0 0 0
159 1 3 0 -1.22802 14.889 -13.028967241974486 0 0 0
160 1 3 0 0 15.598 -13.028967241974486 0 0 0
161 1 3 0 2.45605 12.762 -13.028967241974486 0 0 0
162 1 3 0 1.22802 13.471 -13.028967241974486 0 0 0
163 1 3 0 1.22802 14.889 -13.028967241974486 0 0 0